# vtk DataFile Version 2.0
Vtkoutput example
ASCII

DATASET UNSTRUCTURED_GRID
POINTS 3368 float
0.1 0.1 0.0
0.1 0.098 0.0
0.098 0.1 0.0
0.1 0.096 0.0
0.096 0.1 0.0
0.0986667 0.0973333 0.0
0.097 0.098 0.0
0.0985 0.0955 0.0
0.1 0.094 0.0
0.1 0.092 0.0
0.094 0.1 0.0
0.0952 0.0984 0.0
0.096 0.096 0.0
0.0973333 0.0933333 0.0
0.0985 0.09125 0.0
0.1 0.09 0.0
0.1 0.088 0.0
0.0933333 0.0986667 0.0
0.092 0.1 0.0
0.0942857 0.0957143 0.0
0.0928571 0.0971429 0.0
0.0955 0.09375 0.0
0.09625 0.092375 0.0
0.097 0.091 0.0
0.0985 0.0895 0.0
0.1 0.086 0.0
0.0986 0.0874 0.0
0.0914286 0.0985714 0.0
0.09 0.1 0.0
0.0925 0.0955 0.0
0.0933333 0.0937778 0.0
0.091 0.097 0.0
0.0944 0.0916 0.0
0.0958 0.0902 0.0
0.0972 0.0888 0.0
0.1 0.084 0.0
0.0985455 0.0854545 0.0
0.0970909 0.0869091 0.0
0.0916 0.0944 0.0
0.0895 0.0985 0.0
0.088 0.1 0.0
0.0902 0.0958 0.0
0.0927273 0.0912727 0.0
0.0912727 0.0927273 0.0
0.0888 0.0972 0.0
0.1 0.082 0.0
0.0933333 0.0895 0.0
0.0946667 0.088 0.0
0.0986154 0.0833846 0.0
0.0953846 0.0861538 0.0
0.0972308 0.0847692 0.0
0.0898182 0.0941818 0.0
0.0916923 0.0903077 0.0
0.0874 0.0986 0.0
0.086 0.1 0.0
0.088 0.0955 0.0
0.0903077 0.0916923 0.0
0.0889231 0.0930769 0.0
0.0866667 0.097 0.0
0.0914286 0.0885714 0.0
0.1 0.08 0.0
0.0985714 0.0814286 0.0
0.0928571 0.0871429 0.0
0.093803 0.0856583 0.0
0.0971429 0.0828571 0.0
0.0957143 0.0842857 0.0
0.09 0.09 0.0
0.0853333 0.0985 0.0
0.084 0.1 0.0
0.0861538 0.0944615 0.0
0.0871429 0.0928571 0.0
0.0885714 0.0914286 0.0
0.0842857 0.0957143 0.0
0.1 0.078 0.0
0.0908351 0.0865564 0.0
0.0896619 0.0880556 0.0
0.0981681 0.0792296 0.0
0.0967395 0.0806581 0.0
0.0922214 0.0851627 0.0
0.0939507 0.0838822 0.0
0.0949538 0.0824438 0.0
0.0933484 0.0824452 0.0
0.0881203 0.0899177 0.0
0.0847801 0.0941363 0.0
0.0833846 0.0986154 0.0
0.0830769 0.0972308 0.0
0.082 0.1 0.0
0.0852745 0.0925583 0.0
0.0866918 0.0913462 0.0
0.0823145 0.0959505 0.0
0.0828603 0.094105 0.0
0.1 0.076 0.0
0.1 0.074 0.0
0.0982289 0.0772717 0.0
0.0907522 0.0847635 0.0
0.0893238 0.0861112 0.0
0.0877823 0.0879732 0.0
0.0963361 0.0784591 0.0
0.0949076 0.0798877 0.0
0.0921871 0.0834788 0.0
0.090414 0.0828596 0.0
0.0927462 0.0810081 0.0
0.0862407 0.0898353 0.0
0.0859877 0.088377 0.0
0.0834062 0.0922594 0.0
0.0814286 0.0985714 0.0
0.0803432 0.0961867 0.0
0.08 0.1 0.0
0.0846884 0.090827 0.0
0.0805148 0.0942801 0.0
0.0809035 0.0928504 0.0
0.0981989 0.0752744 0.0
0.1 0.072 0.0
0.1 0.07 0.0
0.0981041 0.0733487 0.0
0.0964577 0.0765433 0.0
0.0889858 0.0841667 0.0
0.0873602 0.0855428 0.0
0.0857347 0.0869188 0.0
0.0945042 0.0776887 0.0
0.0934328 0.0787601 0.0
0.0915171 0.0798147 0.0
0.0886483 0.0822256 0.0
0.0909506 0.0812043 0.0
0.0841092 0.0882948 0.0
0.082119 0.0912445 0.0
0.079186 0.0982115 0.0
0.0790363 0.0944573 0.0
0.0783719 0.096423 0.0
0.078 0.1 0.0
0.0824837 0.0896708 0.0
0.0796695 0.0916617 0.0
0.0788237 0.0928482 0.0
0.1 0.068 0.0
0.0963978 0.0745488 0.0
0.0981595 0.071385 0.0
0.0981594 0.0694975 0.0
0.0962082 0.0726975 0.0
0.0946866 0.075815 0.0
0.0870503 0.083628 0.0
0.0854718 0.0853187 0.0
0.0837993 0.08638 0.0
0.0926722 0.0769182 0.0
0.091182 0.0779826 0.0
0.0867972 0.0821721 0.0
0.0897506 0.079125 0.0
0.08832 0.0803376 0.0
0.0825288 0.0872381 0.0
0.0808318 0.0902295 0.0
0.0772878 0.0982116 0.0
0.0775579 0.0946344 0.0
0.0765756 0.0964232 0.0
0.076 0.1 0.0
0.0812583 0.0880961 0.0
0.0788181 0.0895102 0.0
0.0778012 0.0913628 0.0
0.0767439 0.0928459 0.0
0.1 0.066 0.0
0.0981088 0.0675033 0.0
0.0944213 0.0740265 0.0
0.096208 0.0709224 0.0
0.0963188 0.068995 0.0
0.0943124 0.0720462 0.0
0.0929154 0.0750866 0.0
0.085209 0.0837187 0.0
0.0828912 0.0846004 0.0
0.0818638 0.0858412 0.0
0.090847 0.0761506 0.0
0.0849461 0.0821186 0.0
0.0897109 0.0773429 0.0
0.0863674 0.0804064 0.0
0.0879917 0.0784496 0.0
0.0753591 0.0981221 0.0
0.0758634 0.0946348 0.0
0.0745802 0.0963585 0.0
0.074 0.1 0.0
0.0800328 0.0865215 0.0
0.0788128 0.0872285 0.0
0.0751513 0.0928464 0.0
0.0779292 0.0884357 0.0
0.0770457 0.0896429 0.0
0.0759328 0.091064 0.0
0.0981087 0.065622 0.0
0.1 0.064 0.0
0.0962176 0.0670066 0.0
0.0925617 0.0733687 0.0
0.0944785 0.070155 0.0
0.0944782 0.0684924 0.0
0.0924165 0.0713949 0.0
0.0911508 0.0743609 0.0
0.083095 0.0820651 0.0
0.0815538 0.0839264 0.0
0.0890911 0.0754121 0.0
0.0844148 0.0804752 0.0
0.0824621 0.080544 0.0
0.0876635 0.0765616 0.0
0.0858361 0.078763 0.0
0.0867498 0.0776623 0.0
0.073397 0.0981791 0.0
0.0738704 0.0945377 0.0
0.0727939 0.0963582 0.0
0.0800256 0.0834793 0.0
0.072 0.1 0.0
0.0788074 0.0849469 0.0
0.0775891 0.0864145 0.0
0.0734362 0.0924882 0.0
0.0744417 0.0910645 0.0
0.0763708 0.0878821 0.0
0.0751526 0.0893497 0.0
0.096306 0.0650659 0.0
0.098083 0.0635333 0.0
0.1 0.062 0.0
0.0943264 0.0665098 0.0
0.0910187 0.0723817 0.0
0.092638 0.06954 0.0
0.0924346 0.0675379 0.0
0.0905644 0.0707587 0.0
0.0894532 0.0736628 0.0
0.0812439 0.0820116 0.0
0.0811835 0.0795222 0.0
0.0873352 0.0746736 0.0
0.0836804 0.0790764 0.0
0.0824513 0.0785595 0.0
0.0861169 0.0761412 0.0
0.0848987 0.0776088 0.0
0.0714778 0.0980834 0.0
0.0721909 0.0945373 0.0
0.0709556 0.0961668 0.0
0.0779375 0.0828649 0.0
0.0788591 0.0816108 0.0
0.07 0.1 0.0
0.0715879 0.0927165 0.0
0.0771945 0.0842106 0.0
0.0759967 0.0856786 0.0
0.0728038 0.0906354 0.0
0.0737591 0.0893503 0.0
0.0747236 0.0877591 0.0
0.094459 0.0645989 0.0
0.096166 0.0630666 0.0
0.0980831 0.0616591 0.0
0.1 0.06 0.0
0.0924351 0.0660131 0.0
0.0892923 0.0716862 0.0
0.0908394 0.067499 0.0
0.0905638 0.0693185 0.0
0.0890194 0.0702441 0.0
0.0924346 0.0644881 0.0
0.0877555 0.0729647 0.0
0.0797807 0.0803567 0.0
0.0799049 0.0785003 0.0
0.0813235 0.077359 0.0
0.0855793 0.0739352 0.0
0.0834939 0.0770181 0.0
0.0841607 0.0750765 0.0
0.0695129 0.0981372 0.0
0.0704333 0.0942502 0.0
0.0690258 0.0962744 0.0
0.0763246 0.0821286 0.0
0.0770676 0.0807829 0.0
0.068 0.1 0.0
0.0696015 0.0925482 0.0
0.0709929 0.0909199 0.0
0.0755816 0.0834744 0.0
0.0739982 0.0854319 0.0
0.0721895 0.0888354 0.0
0.0730764 0.0876361 0.0
0.094249 0.0625998 0.0
0.0961663 0.0613181 0.0
0.1 0.058 0.0
0.098083 0.0597848 0.0
0.0906059 0.0655327 0.0
0.0890752 0.0670174 0.0
0.087566 0.0709908 0.0
0.0887464 0.068802 0.0
0.0921794 0.0625253 0.0
0.0906053 0.0641225 0.0
0.0860579 0.0722666 0.0
0.0783176 0.0787017 0.0
0.0798292 0.0769478 0.0
0.0810705 0.0759492 0.0
0.0838234 0.0731967 0.0
0.0824469 0.0745729 0.0
0.0675185 0.0980834 0.0
0.068199 0.0942499 0.0
0.0675987 0.0923332 0.0
0.067037 0.0961669 0.0
0.0751257 0.0812696 0.0
0.0763355 0.0793341 0.0
0.066 0.1 0.0
0.0704149 0.0891746 0.0
0.0690157 0.0907283 0.0
0.0739688 0.0827382 0.0
0.0728118 0.0842068 0.0
0.0723938 0.085922 0.0
0.0715751 0.0870354 0.0
0.0942494 0.0609772 0.0
0.0962271 0.059368 0.0
0.1 0.056 0.0
0.0979955 0.0577978 0.0
0.0923344 0.0606366 0.0
0.0889338 0.0653888 0.0
0.087311 0.0665357 0.0
0.0858396 0.0702953 0.0
0.0869291 0.0682856 0.0
0.0903049 0.0621718 0.0
0.0887925 0.0637602 0.0
0.0843603 0.0715684 0.0
0.0775558 0.0775257 0.0
0.078304 0.0762211 0.0
0.0797536 0.0753953 0.0
0.080813 0.0737125 0.0
0.0820675 0.0724582 0.0
0.0670181 0.0904794 0.0
0.0655472 0.0981257 0.0
0.0665554 0.0942503 0.0
0.0660739 0.0923337 0.0
0.0652745 0.0961669 0.0
0.0732222 0.0809568 0.0
0.0745406 0.0799839 0.0
0.0756034 0.0778854 0.0
0.064 0.1 0.0
0.0689004 0.0886242 0.0
0.0698369 0.0874293 0.0
0.0671089 0.0889434 0.0
0.0720316 0.0824925 0.0
0.0712751 0.0840732 0.0
0.0704188 0.0856849 0.0
0.1 0.054 0.0
0.0943407 0.0590519 0.0
0.0923339 0.0591394 0.0
0.0959911 0.0575957 0.0
0.0980189 0.055822 0.0
0.1 0.052 0.0
0.0904971 0.0603098 0.0
0.0904965 0.0589331 0.0
0.0869805 0.0645805 0.0
0.0855468 0.066054 0.0
0.0853298 0.06747 0.0
0.0835974 0.0701975 0.0
0.0851128 0.0688859 0.0
0.0884304 0.0618183 0.0
0.0872849 0.0627847 0.0
0.0819538 0.0710171 0.0
0.076794 0.0763497 0.0
0.0779847 0.074814 0.0
0.0791753 0.0732783 0.0
0.0803659 0.0717426 0.0
0.0818402 0.0695759 0.0
0.0656082 0.09048 0.0
0.0635476 0.0980522 0.0
0.0649117 0.0942503 0.0
0.0645489 0.0923337 0.0
0.0632927 0.0960311 0.0
0.0717946 0.0808946 0.0
0.0724778 0.0794249 0.0
0.0736765 0.0779443 0.0
0.0749633 0.0764788 0.0
0.062 0.1 0.0
0.0651466 0.0886429 0.0
0.0662756 0.0869815 0.0
0.0678662 0.0871571 0.0
0.0705496 0.0823559 0.0
0.0697384 0.0839397 0.0
0.0678993 0.0849501 0.0
0.098033 0.0538446 0.0
0.0940568 0.0570652 0.0
0.0920036 0.0571935 0.0
0.0960379 0.055644 0.0
0.0940568 0.055466 0.0
0.0980375 0.0518664 0.0
0.1 0.05 0.0
0.1 0.048 0.0
0.1 0.046 0.0
0.1 0.044 0.0
0.1 0.042 0.0
0.1 0.04 0.0
0.0886598 0.059983 0.0
0.0900823 0.0569997 0.0
0.0888399 0.0581304 0.0
0.0851677 0.0641044 0.0
0.0837825 0.0655724 0.0
0.0832956 0.0682617 0.0
0.0855146 0.0623371 0.0
0.086556 0.0614649 0.0
0.0793757 0.0703332 0.0
0.0773445 0.0734075 0.0
0.0758338 0.0742399 0.0
0.0780771 0.0717982 0.0
0.0792227 0.0689505 0.0
0.0807405 0.068241 0.0
0.0637509 0.0906897 0.0
0.070367 0.0808324 0.0
0.0616734 0.0980521 0.0
0.0626429 0.0941567 0.0
0.062191 0.0922109 0.0
0.0613467 0.0961042 0.0
0.0721728 0.0775687 0.0
0.0709396 0.078371 0.0
0.0743231 0.0750723 0.0
0.0728124 0.0759048 0.0
0.0745829 0.0727353 0.0
0.06 0.1 0.0
0.0646851 0.0868059 0.0
0.0633169 0.0888932 0.0
0.0661752 0.0853724 0.0
0.0690676 0.0822192 0.0
0.0673987 0.083113 0.0
0.0960659 0.0536892 0.0
0.096075 0.0517328 0.0
0.0920969 0.0552899 0.0
0.0901981 0.0551193 0.0
0.0940564 0.0538668 0.0
0.0980375 0.05 0.0
0.098033 0.0480218 0.0
0.096075 0.05 0.0
0.0980328 0.0461554 0.0
0.0980189 0.044178 0.0
0.1 0.038 0.0
0.1 0.036 0.0
0.0979957 0.0422022 0.0
0.0981134 0.040316 0.0
0.0980831 0.0383409 0.0
0.0868225 0.0596562 0.0
0.0870317 0.0578275 0.0
0.0882992 0.0549486 0.0
0.0881611 0.0568059 0.0
0.0833781 0.0636344 0.0
0.0818476 0.0645914 0.0
0.0820716 0.0660093 0.0
0.0837668 0.0618951 0.0
0.0849842 0.0603442 0.0
0.0777876 0.0688656 0.0
0.0769789 0.0703181 0.0
0.0757809 0.0715267 0.0
0.0790696 0.0675679 0.0
0.079811 0.0662628 0.0
0.0646651 0.0851706 0.0
0.0617574 0.0903439 0.0
0.068964 0.0806947 0.0
0.0697063 0.0791733 0.0
0.0597991 0.0980522 0.0
0.0606938 0.0922104 0.0
0.0610201 0.0941563 0.0
0.0593954 0.0961611 0.0
0.069791 0.0775696 0.0
[...]
POINT_DATA 3368
VECTORS u float
0.0966852 0.132256 0.0
0.0941864 0.129542 0.0
0.0948768 0.129759 0.0
0.0916897 0.126826 0.0
0.0930705 0.127261 0.0
0.0921471 0.126974 0.0
0.0914726 0.125798 0.0
0.0897086 0.124278 0.0
0.0891998 0.124109 0.0
0.0867155 0.121395 0.0
0.0912668 0.124756 0.0
0.0903452 0.124091 0.0
0.0880708 0.121838 0.0
0.085958 0.119887 0.0
0.0844302 0.118514 0.0
0.0842369 0.118682 0.0
0.081759 0.115971 0.0
0.08899 0.12211 0.0
0.0894628 0.122238 0.0
0.0861633 0.119301 0.0
0.0866523 0.119444 0.0
0.0848184 0.118163 0.0
0.0837932 0.117239 0.0
0.0827664 0.116313 0.0
0.0822628 0.116144 0.0
0.0792792 0.113261 0.0
0.0797516 0.113425 0.0
0.0871453 0.119578 0.0
0.087655 0.119705 0.0
0.0842816 0.116766 0.0
0.082898 0.115485 0.0
0.084788 0.116899 0.0
0.0811679 0.113883 0.0
0.0806953 0.113742 0.0
0.080224 0.113586 0.0
0.0768008 0.110544 0.0
0.0772881 0.110723 0.0
0.0777849 0.110899 0.0
0.0821025 0.114137 0.0
0.0853005 0.117028 0.0
0.0858364 0.117152 0.0
0.0825681 0.114252 0.0
0.0792649 0.11135 0.0
0.07975 0.111466 0.0
0.0830315 0.114362 0.0
0.0743103 0.107818 0.0
0.0776255 0.10973 0.0
0.0769628 0.109377 0.0
0.07478 0.107997 0.0
0.0753213 0.107783 0.0
0.0752507 0.108182 0.0
0.0802231 0.111573 0.0
0.0771576 0.108755 0.0
0.0835015 0.114469 0.0
0.084001 0.11457 0.0
0.0801944 0.111023 0.0
0.0776204 0.108855 0.0
0.0780689 0.108946 0.0
0.080827 0.111335 0.0
0.0748039 0.106114 0.0
0.0718141 0.105067 0.0
0.0722924 0.105275 0.0
0.0743068 0.105998 0.0
0.0733049 0.105189 0.0
0.0727904 0.105484 0.0
0.0732894 0.105681 0.0
0.0752856 0.106211 0.0
0.0814612 0.111646 0.0
0.0821364 0.111975 0.0
0.0772364 0.107207 0.0
0.0761953 0.106339 0.0
0.0757539 0.106283 0.0
0.0770386 0.106452 0.0
0.0693273 0.102291 0.0
0.0718292 0.102723 0.0
0.07264 0.103224 0.0
0.0691702 0.101767 0.0
0.0696628 0.102017 0.0
0.0713095 0.102604 0.0
0.0712259 0.103009 0.0
0.0703142 0.102291 0.0
0.0689115 0.100397 0.0
0.0735422 0.103707 0.0
0.0756001 0.104968 0.0
0.0797763 0.109255 0.0
0.0777768 0.106937 0.0
0.0802362 0.109365 0.0
0.0741686 0.103508 0.0
0.0739973 0.103744 0.0
0.0754828 0.104161 0.0
0.0738066 0.102371 0.0
0.0668457 0.09947 0.0
0.0643775 0.0965915 0.0
0.0667695 0.0991285 0.0
0.0695596 0.100289 0.0
0.0699974 0.100275 0.0
0.0709296 0.100737 0.0
0.0665354 0.09855 0.0
0.0670621 0.0988272 0.0
0.0692005 0.100355 0.0
0.0669401 0.097425 0.0
0.0665895 0.0977898 0.0
0.0718142 0.101171 0.0
0.0698845 0.0989624 0.0
0.0721484 0.100619 0.0
0.0778515 0.106621 0.0
0.07388 0.101838 0.0
0.0782958 0.106726 0.0
0.0716237 0.100439 0.0
0.0718269 0.0994413 0.0
0.0705645 0.0980344 0.0
0.0642366 0.0962843 0.0
0.0619423 0.0936477 0.0
0.059558 0.0906215 0.0
0.0617432 0.093423 0.0
0.0642151 0.096063 0.0
0.0673516 0.0973751 0.0
0.0676785 0.0970989 0.0
0.0679676 0.0967622 0.0
0.0639186 0.0954093 0.0
0.0643404 0.0956245 0.0
0.0640454 0.0948268 0.0
0.0647092 0.0945254 0.0
0.0653146 0.0959537 0.0
0.0682045 0.0963907 0.0
0.0698523 0.0975475 0.0
0.07521 0.103125 0.0
0.0706254 0.0976712 0.0
0.0722371 0.0994963 0.0
0.076295 0.104091 0.0
0.0684077 0.0959826 0.0
0.0681279 0.0947575 0.0
0.068651 0.0951755 0.0
0.0572425 0.0875057 0.0
0.0616402 0.0932249 0.0
0.0593766 0.0906283 0.0
0.0570965 0.087824 0.0
0.0591324 0.0904219 0.0
0.0616865 0.0930954 0.0
0.0651284 0.0943151 0.0
0.0658859 0.0944161 0.0
0.0657629 0.0935702 0.0
0.0613451 0.0923662 0.0
0.0614492 0.0920969 0.0
0.0631743 0.092211 0.0
0.0617216 0.0919363 0.0
0.0621074 0.091786 0.0
0.065703 0.0929633 0.0
0.0676094 0.0944659 0.0
0.0732925 0.100569 0.0
0.0694023 0.0958674 0.0
0.0704374 0.0970409 0.0
0.0742113 0.101436 0.0
0.065633 0.0923037 0.0
0.0650924 0.0907611 0.0
0.066144 0.0917674 0.0
0.0667086 0.0922835 0.0
0.0550337 0.0842913 0.0
0.0547047 0.0847362 0.0
0.0591738 0.0903789 0.0
0.0569211 0.0878959 0.0
0.054674 0.0852117 0.0
0.056568 0.0875556 0.0
0.0591996 0.0902282 0.0
0.0637859 0.092123 0.0
0.0630455 0.0902017 0.0
0.0636267 0.0903582 0.0
0.0588335 0.0893979 0.0
0.0617044 0.0898787 0.0
0.0594397 0.0896688 0.0
0.0606911 0.0895668 0.0
0.0594909 0.0891106 0.0
0.0711737 0.0978361 0.0
0.0677446 0.0935354 0.0
0.0683185 0.0942251 0.0
0.0720375 0.0988072 0.0
0.0629416 0.0886714 0.0
0.0627229 0.0878736 0.0
0.0651982 0.0900574 0.0
0.0632392 0.0881447 0.0
0.0637001 0.0884522 0.0
0.0641487 0.0887407 0.0
0.0525956 0.081805 0.0
0.0529424 0.0809768 0.0
0.0522229 0.0821783 0.0
0.0566883 0.0875959 0.0
0.0543499 0.0851064 0.0
0.0523013 0.0827704 0.0
0.0540611 0.0848287 0.0
0.0567758 0.0874446 0.0
0.0602738 0.0874531 0.0
0.061276 0.087627 0.0
0.0564757 0.0866177 0.0
0.0593274 0.0872772 0.0
0.0580328 0.0849069 0.0
0.0568553 0.0864615 0.0
0.0582623 0.0869914 0.0
0.0575615 0.0867459 0.0
0.0691255 0.0952954 0.0
0.0656456 0.090649 0.0
0.0664312 0.0917973 0.0
0.0596688 0.0850459 0.0
0.0697597 0.096213 0.0
0.0603368 0.0850857 0.0
0.060915 0.0851453 0.0
0.0631869 0.0871754 0.0
0.0627888 0.0866365 0.0
0.0613923 0.0852486 0.0
0.0617866 0.0853842 0.0
0.0501245 0.0793394 0.0
0.0503602 0.0784469 0.0
0.0510283 0.0775549 0.0
0.0498072 0.0798122 0.0
0.0541132 0.0847888 0.0
0.0519291 0.0825581 0.0
0.0492654 0.0796809 0.0
0.0516726 0.0822782 0.0
0.0544983 0.0848451 0.0
0.058897 0.0850123 0.0
0.0559614 0.0821453 0.0
0.0541806 0.0838652 0.0
0.0571103 0.0847758 0.0
0.05565 0.0826772 0.0
0.0551717 0.084257 0.0
0.0561569 0.0845592 0.0
0.066863 0.0926173 0.0
0.0639326 0.0883329 0.0
0.0642259 0.0890521 0.0
0.0575429 0.081473 0.0
0.0568197 0.0813305 0.0
0.0673763 0.0936795 0.0
0.0615896 0.0849183 0.0
0.0584071 0.0819681 0.0
0.0589669 0.0820123 0.0
0.0608757 0.0837547 0.0
0.0605773 0.0833933 0.0
0.0599354 0.0827397 0.0
0.0477726 0.0771424 0.0
0.0478615 0.0761566 0.0
0.0485428 0.0753848 0.0
0.0493026 0.0740352 0.0
0.0474434 0.0775925 0.0
0.0518162 0.0822497 0.0
0.047817 0.0782954 0.0
0.0498507 0.0804198 0.0
0.0497634 0.0802204 0.0
0.0457096 0.075473 0.0
0.0522839 0.0822882 0.0
0.0559939 0.0812143 0.0
0.0539549 0.0793907 0.0
0.0534929 0.0800058 0.0
0.0519676 0.0811689 0.0
0.0544691 0.0822589 0.0
0.0524636 0.0808939 0.0
0.0646373 0.0901611 0.0
0.0618131 0.085533 0.0
0.062164 0.0866817 0.0
0.0556878 0.0783479 0.0
0.0547334 0.07795 0.0
0.0648658 0.0912352 0.0
0.0594446 0.0819558 0.0
0.0594333 0.0816002 0.0
0.0565238 0.0788106 0.0
0.0572105 0.0788246 0.0
0.0587513 0.0804945 0.0
0.0584779 0.0802178 0.0
0.0454487 0.0740492 0.0
0.046158 0.0734291 0.0
0.0478071 0.0704287 0.0
0.0469026 0.0722579 0.0
0.0452486 0.0755335 0.0
0.0457387 0.0762463 0.0
0.049582 0.0797685 0.0
0.047687 0.0781886 0.0
0.0433665 0.0725349 0.0
0.0436189 0.0736616 0.0
0.0501333 0.0797759 0.0
0.0532061 0.0774511 0.0
0.0520751 0.0776622 0.0
0.0515956 0.0782024 0.0
0.0498088 0.0784727 0.0
0.0506952 0.078414 0.0
0.0621574 0.0875957 0.0
0.0593918 0.0825792 0.0
0.0571961 0.0789959 0.0
0.059749 0.0840165 0.0
0.0540342 0.0756855 0.0
0.0527111 0.0753733 0.0
0.062233 0.0889186 0.0
0.0574505 0.0784269 0.0
0.0573771 0.0785938 0.0
0.0547006 0.0756346 0.0
0.0552297 0.0756251 0.0
0.0563965 0.0770842 0.0
0.0567105 0.0772722 0.0
0.0438577 0.0716361 0.0
0.0445197 0.0703781 0.0
0.0465564 0.0667623 0.0
0.0453016 0.0688199 0.0
0.0416413 0.069956 0.0
0.0436474 0.0740953 0.0
0.0437324 0.0742334 0.0
0.0474091 0.0773237 0.0
0.045609 0.0760056 0.0
0.0412538 0.0708407 0.0
0.041615 0.0719333 0.0
0.0480466 0.077276 0.0
0.0514235 0.0752144 0.0
0.0503097 0.0749038 0.0
0.0501253 0.0759832 0.0
0.0486016 0.0756111 0.0
0.0477287 0.0757907 0.0
0.0552111 0.0755899 0.0
0.0597095 0.0853407 0.0
0.0575637 0.0804952 0.0
0.0555849 0.0770392 0.0
0.0576254 0.0819021 0.0
0.052494 0.0725251 0.0
0.0523307 0.0734442 0.0
0.0507171 0.0728344 0.0
0.0594711 0.0867353 0.0
0.0556472 0.0755678 0.0
0.0555444 0.0753255 0.0
0.0542204 0.0735317 0.0
0.0531488 0.0724787 0.0
0.0539915 0.0731971 0.0
0.0546667 0.0739049 0.0
0.045592 0.0630409 0.0
0.0422872 0.0687734 0.0
0.0403324 0.0677876 0.0
0.0429159 0.0673936 0.0
0.0440871 0.0654321 0.0
0.0449174 0.0592901 0.0
0.0395853 0.0684303 0.0
0.0383725 0.0665344 0.0
0.0410799 0.071624 0.0
0.0417663 0.0722384 0.0
0.043379 0.0736906 0.0
0.0457443 0.0750489 0.0
0.0450604 0.0750712 0.0
0.0391948 0.06918 0.0
0.0392266 0.0696788 0.0
0.0457991 0.0741808 0.0
0.0496197 0.0729784 0.0
0.0484156 0.073093 0.0
0.0471046 0.0731604 0.0
0.0457816 0.0731323 0.0
0.0437859 0.0726038 0.0
0.0537844 0.0737437 0.0
0.0570206 0.0830031 0.0
0.055681 0.0784998 0.0
0.0539266 0.0751571 0.0
0.0550584 0.0794527 0.0
0.0515266 0.0703238 0.0
0.0505574 0.0697612 0.0
0.0497029 0.0700572 0.0
0.0487984 0.0705099 0.0
0.0565839 0.084757 0.0
0.0521449 0.0705447 0.0
0.0521208 0.0697351 0.0
0.0536555 0.0721479 0.0
0.0520138 0.0700837 0.0
0.0527439 0.0707463 0.0
0.0520613 0.0693467 0.0
0.0431544 0.0619991 0.0
0.040488 0.0656012 0.0
0.0385422 0.0648038 0.0
0.0417473 0.0642385 0.0
0.0395772 0.0631385 0.0
0.0425086 0.0585443 0.0
0.0444743 0.0555271 0.0
0.0445684 0.0518037 0.0
0.0447969 0.0481187 0.0
0.0454202 0.0445293 0.0
0.0463131 0.0410593 0.0
0.047427 0.0377023 0.0
0.0375867 0.0669287 0.0
0.0365057 0.0636283 0.0
0.0361458 0.0645825 0.0
0.0390717 0.069693 0.0
0.0398306 0.0702386 0.0
0.0429899 0.0727066 0.0
0.0372763 0.0679012 0.0
0.0371824 0.0675746 0.0
0.0433538 0.0706088 0.0
0.0462894 0.0709064 0.0
0.0465814 0.069616 0.0
0.0446059 0.0703732 0.0
0.0414069 0.0691141 0.0
0.0413216 0.0701078 0.0
0.0520122 0.0717718 0.0
0.0505677 0.0680697 0.0
0.0544779 0.0811209 0.0
0.0529492 0.0757965 0.0
0.0512021 0.0723102 0.0
0.0526178 0.0775947 0.0
0.0484894 0.0673731 0.0
0.0486251 0.0662677 0.0
0.0468096 0.0682108 0.0
0.0470157 0.0667264 0.0
0.044072 0.0664131 0.0
0.0535852 0.0829961 0.0
0.0505681 0.0673696 0.0
0.0504882 0.0686339 0.0
0.0509583 0.0674252 0.0
0.0508725 0.0676791 0.0
0.0503541 0.066292 0.0
0.0408606 0.0610537 0.0
0.0402738 0.0578551 0.0
0.0374062 0.0620912 0.0
0.0354219 0.0610567 0.0
0.038762 0.0606638 0.0
0.0422219 0.0553324 0.0
0.0422159 0.0519233 0.0
0.0400666 0.0550278 0.0
0.0424443 0.0487027 0.0
0.043085 0.0453974 0.0
0.0487649 0.0345026 0.0
0.050273 0.0314657 0.0
0.0439843 0.0421843 0.0
0.0452114 0.0391497 0.0
0.0465553 0.0361534 0.0
0.0356241 0.0654701 0.0
0.034225 0.0632475 0.0
0.0334827 0.0600379 0.0
0.0345044 0.0624695 0.0
0.0371391 0.0677781 0.0
0.0372251 0.0675093 0.0
0.0391959 0.0691909 0.0
0.0353836 0.0661387 0.0
0.0346921 0.0652028 0.0
0.0404906 0.067295 0.0
0.0420547 0.0675979 0.0
0.0430926 0.0670691 0.0
0.0394155 0.0676353 0.0
0.0380866 0.0672087 0.0
0.0495182 0.0651306 0.0
0.0496843 0.0690169 0.0
0.0495323 0.0657691 0.0
0.0486393 0.0652059 0.0
0.0518514 0.0794378 0.0
0.0494839 0.0707831 0.0
0.0509834 0.0741523 0.0
0.0500951 0.0759235 0.0
0.0471664 0.0636057 0.0
0.0465725 0.0642654 0.0
0.0418918 0.0644659 0.0
0.0449894 0.0657296 0.0
0.0448346 0.063959 0.0
0.0414471 0.0620858 0.0
0.0504883 0.0814974 0.0
0.0490305 0.065522 0.0
0.0480806 0.0628434 0.0
0.0482205 0.0657633 0.0
0.0482816 0.0624963 0.0
0.0485097 0.0634208 0.0
0.048514 0.0629125 0.0
0.0519359 0.0286023 0.0
0.0381713 0.057681 0.0
0.0378903 0.0546675 0.0
0.0347861 0.0591852 0.0
0.0366876 0.0599283 0.0
0.0399408 0.0518429 0.0
0.0403318 0.0487313 0.0
0.0408732 0.0460108 0.0
0.0379035 0.0517133 0.0
0.0417636 0.0430014 0.0
0.0480345 0.0334157 0.0
0.0498337 0.0305885 0.0
0.0430806 0.0402761 0.0
0.0444131 0.0374436 0.0
0.0458425 0.0349881 0.0
0.0326973 0.0575553 0.0
0.0327578 0.0627636 0.0
0.0315621 0.0590097 0.0
0.0325386 0.0613061 0.0
0.0315112 0.0609772 0.0
0.0352676 0.06583 0.0
0.0363031 0.0662231 0.0
0.0335949 0.0643013 0.0
0.033562 0.0643638 0.0
0.0318686 0.0624775 0.0
0.0375769 0.0650847 0.0
0.0386956 0.0646059 0.0
0.0402511 0.0647035 0.0
0.0363566 0.0648151 0.0
0.0345946 0.0640566 0.0
0.047496 0.0626244 0.0
0.0481863 0.0676113 0.0
0.0470882 0.062355 0.0
0.0490185 0.0779873 0.0
0.0477337 0.0694458 0.0
0.0486477 0.0725411 0.0
0.0477382 0.0746039 0.0
0.0466962 0.0605868 0.0
0.0446851 0.0595652 0.0
0.0433957 0.0613345 0.0
0.0447321 0.061037 0.0
0.0399754 0.0618462 0.0
0.0419983 0.0606402 0.0
0.0395981 0.0597679 0.0
0.0473138 0.0802478 0.0
0.0466859 0.0599023 0.0
0.0468248 0.0625316 0.0
0.0460587 0.0597632 0.0
0.0456017 0.0632651 0.0
0.0466784 0.0594119 0.0
0.0468385 0.0599582 0.0
0.053693 0.0259226 0.0
0.055526 0.0234193 0.0
0.0573751 0.0210962 0.0
0.0516074 0.0280227 0.0
0.0358759 0.0542898 0.0
0.0360419 0.0564613 0.0
0.0341935 0.0565415 0.0
0.0359231 0.0514804 0.0
0.0381852 0.0492953 0.0
0.0387622 0.0463949 0.0
0.0396283 0.0435721 0.0
0.0361643 0.0493505 0.0
0.0411237 0.0407155 0.0
0.0477495 0.032217 0.0
0.0495296 0.0297512 0.0
0.0423284 0.0384381 0.0
0.0438363 0.0358737 0.0
0.0456885 0.0335358 0.0
0.032181 0.05503 0.0
0.0307933 0.0566451 0.0
0.0300398 0.0593193 0.0
0.0304953 0.060599 0.0
0.0296502 0.0579949 0.0
0.0289353 0.0557647 0.0
0.0334437 0.063814 0.0
0.031599 0.0624743 0.0
0.0300857 0.0608892 0.0
0.0287549 0.059168 0.0
0.0384408 0.0615884 0.0
0.0357345 0.062373 0.0
0.0342883 0.0620744 0.0
0.0368871 0.0617176 0.0
0.0329063 0.061702 0.0
0.0325533 0.0622608 0.0
0.0466408 0.0663535 0.0
0.0452155 0.0587913 0.0
0.0445327 0.0602714 0.0
0.046128 0.0767709 0.0
0.0465892 0.0713248 0.0
0.0455374 0.0680797 0.0
0.0450885 0.0734306 0.0
0.0445678 0.0650575 0.0
0.0450774 0.0576215 0.0
0.0432057 0.0558369 0.0
0.0428413 0.0576695 0.0
0.0419407 0.0586413 0.0
0.0365945 0.0583018 0.0
0.0399798 0.057894 0.0
0.0376556 0.0573663 0.0
0.0440733 0.0793243 0.0
0.0454204 0.0580011 0.0
0.0453093 0.057026 0.0
0.0436365 0.0620614 0.0
0.0445028 0.0582658 0.0
0.0441303 0.0561862 0.0
0.0427194 0.0590459 0.0
0.0450081 0.0563251 0.0
0.0445419 0.0558728 0.0
0.0592045 0.0189362 0.0
0.0535621 0.0255022 0.0
0.0554337 0.0232378 0.0
0.057261 0.0211517 0.0
0.0515803 0.0272482 0.0
0.0339248 0.0538643 0.0
0.034001 0.0511764 0.0
0.0367151 0.0465897 0.0
0.0375716 0.0439063 0.0
0.0389842 0.0417674 0.0
0.0343098 0.0485221 0.0
0.0348099 0.0466871 0.0
0.0402889 0.0392153 0.0
0.047456 0.0311698 0.0
0.0491317 0.0291738 0.0
0.0417693 0.0367488 0.0
0.0436573 0.0346264 0.0
0.0454011 0.0323519 0.0
0.0311362 0.0532109 0.0
0.0303164 0.0542431 0.0
0.0284878 0.0534868 0.0
0.0283868 0.0578598 0.0
0.0274576 0.0559457 0.0
0.026878 0.0538522 0.0
0.0309355 0.0610722 0.0
0.0312412 0.0618685 0.0
0.0290679 0.0599736 0.0
0.0277689 0.0586109 0.0
0.0271509 0.0575425 0.0
0.0350702 0.0586421 0.0
0.0312258 0.0591223 0.0
0.0336468 0.0598186 0.0
0.0299754 0.0592594 0.0
0.0431795 0.0570678 0.0
0.0432799 0.0756876 0.0
0.0438393 0.0541545 0.0
0.0441299 0.0701949 0.0
0.0432476 0.0670292 0.0
0.0425938 0.0722257 0.0
0.0424325 0.0640349 0.0
0.042034 0.0530433 0.0
0.0432004 0.0540358 0.0
0.0331751 0.0552648 0.0
0.0410053 0.0528781 0.0
0.0404946 0.054666 0.0
0.0396286 0.0555264 0.0
0.0346224 0.0547023 0.0
0.036752 0.0546113 0.0
0.0408144 0.0785832 0.0
0.0433601 0.0537036 0.0
0.0407938 0.0581052 0.0
0.0416015 0.0610632 0.0
0.0420993 0.0522903 0.0
0.0417341 0.0538661 0.0
0.0417973 0.0560539 0.0
0.0427683 0.0522381 0.0
0.0610064 0.016931 0.0
0.0627368 0.0150694 0.0
0.0643462 0.0133321 0.0
0.0591599 0.0190811 0.0
0.0533916 0.025169 0.0
0.0552577 0.0230843 0.0
0.0572919 0.0209321 0.0
0.0513667 0.0267878 0.0
0.0320715 0.0508178 0.0
0.0356215 0.0441293 0.0
0.0372963 0.0415683 0.0
0.0383612 0.0397643 0.0
0.0324299 0.0482824 0.0
0.0329697 0.0462344 0.0
0.039541 0.0380048 0.0
0.0470064 0.0305405 0.0
0.049492 0.0279135 0.0
0.0417242 0.0355094 0.0
0.0434252 0.0333191 0.0
0.0449616 0.0316808 0.0
0.030165 0.0514262 0.0
0.0266527 0.051729 0.0
0.0283753 0.0510906 0.0
0.0257881 0.0549754 0.0
0.0256333 0.0557062 0.0
0.0252783 0.0534532 0.0
0.0250419 0.0519131 0.0
0.0281658 0.0585844 0.0
0.0267258 0.0574348 0.0
0.0254726 0.056096 0.0
0.0318118 0.0566191 0.0
0.0288513 0.0570009 0.0
0.0295788 0.0562705 0.0
0.0266839 0.0560853 0.0
0.0269187 0.0551191 0.0
0.040387 0.0751127 0.0
0.0419154 0.0506011 0.0
0.0415031 0.0687956 0.0
0.0407353 0.0655273 0.0
0.0396041 0.0716273 0.0
0.0406199 0.0624778 0.0
0.0398606 0.0501437 0.0
0.0408483 0.0502266 0.0
0.0409333 0.0493029 0.0
0.0315327 0.0517594 0.0
0.0299672 0.0526311 0.0
0.0385788 0.0498619 0.0
0.0379419 0.0515832 0.0
0.0324198 0.0506826 0.0
0.0368956 0.0525733 0.0
0.0343514 0.0509107 0.0
0.0375491 0.0784281 0.0
0.0374844 0.074836 0.0
0.0413217 0.0500199 0.0
0.0399627 0.055145 0.0
0.0392753 0.056283 0.0
0.0399574 0.0593846 0.0
0.0401972 0.0485482 0.0
0.0406114 0.050894 0.0
0.0400663 0.0528119 0.0
0.0402638 0.0476359 0.0
0.0713204 0.00482081 0.0
0.0695918 0.00738667 0.0
0.070546 0.00607032 0.0
0.068608 0.00849605 0.0
0.0685031 0.00877336 0.0
0.0673038 0.0102078 0.0
0.0658879 0.0117252 0.0
0.0610128 0.0171035 0.0
0.0626708 0.0153357 0.0
0.0646942 0.0131681 0.0
0.0592064 0.0189492 0.0
0.0532251 0.0247525 0.0
0.0552697 0.0227162 0.0
0.0573368 0.0206274 0.0
0.051176 0.0261974 0.0
0.0676112 0.00951625 0.0
0.0304316 0.0490165 0.0
0.0337266 0.0442377 0.0
0.0351953 0.0425707 0.0
0.0364403 0.040215 0.0
0.0309843 0.0466357 0.0
0.031815 0.0442981 0.0
0.037917 0.0379813 0.0
0.0398232 0.0362456 0.0
0.0475551 0.0290205 0.0
0.0491693 0.0274578 0.0
0.0414969 0.0341179 0.0
0.0438932 0.0318674 0.0
0.0455265 0.0301912 0.0
0.0285922 0.0488092 0.0
0.0249252 0.0503348 0.0
0.0266521 0.0495664 0.0
0.0241482 0.0539503 0.0
0.0233816 0.0505164 0.0
0.0235947 0.0522479 0.0
0.0251576 0.0554324 0.0
0.0239129 0.0543652 0.0
0.0229354 0.0531273 0.0
0.0282794 0.0532192 0.0
0.0270004 0.0538217 0.0
0.0240101 0.0533654 0.0
0.0251388 0.0533613 0.0
0.0396225 0.0465763 0.0
0.0378815 0.0589392 0.0
0.0384339 0.0512509 0.0
0.0394565 0.0683708 0.0
0.0389644 0.0651498 0.0
0.0372629 0.0715024 0.0
0.0369893 0.0681839 0.0
0.0377964 0.0619398 0.0
0.0373536 0.0471498 0.0
0.038656 0.047385 0.0
0.0386416 0.0456925 0.0
0.0291586 0.0475388 0.0
0.0278016 0.0485229 0.0
0.026327 0.0493361 0.0
0.0347934 0.0477427 0.0
0.035794 0.0466597 0.0
0.0300287 0.0463643 0.0
0.0324855 0.0470769 0.0
0.0343379 0.078558 0.0
0.0345621 0.0749852 0.0
0.0349301 0.0715392 0.0
0.0389101 0.0457073 0.0
0.0385677 0.0531641 0.0
0.0373085 0.05582 0.0
0.0377122 0.0446247 0.0
0.0388802 0.0474673 0.0
0.0382881 0.0493052 0.0
0.0385394 0.0448079 0.0
0.0723257 0.00239647 0.0
0.0719104 0.00358906 0.0
0.0710151 0.00443371 0.0
0.0703986 0.00580337 0.0
0.0695404 0.00716501 0.0
0.067484 0.00995631 0.0
0.0649766 0.0127734 0.0
0.0662734 0.0114356 0.0
0.0608587 0.0172182 0.0
0.0630061 0.0149467 0.0
0.0589797 0.0189494 0.0
0.053271 0.0242424 0.0
0.0554332 0.0221334 0.0
0.0570359 0.0205345 0.0
0.0514527 0.02533 0.0
0.0493352 0.0267986 0.0
0.0665037 0.0106911 0.0
0.0676426 0.00896511 0.0
0.0291287 0.0465194 0.0
0.0333382 0.0428539 0.0
0.0345542 0.0405867 0.0
0.0360018 0.0384293 0.0
0.0299143 0.0442979 0.0
0.0314834 0.04306 0.0
0.0383061 0.036165 0.0
0.040154 0.0343961 0.0
0.0360225 0.0374482 0.0
0.0472054 0.0285559 0.0
0.0420451 0.0326508 0.0
0.0438031 0.03083 0.0
0.0269598 0.0474035 0.0
0.0233384 0.0487038 0.0
0.0250905 0.0483418 0.0
0.022275 0.0517898 0.0
0.0217868 0.04945 0.0
0.0213238 0.0502892 0.0
0.0224687 0.0515561 0.0
0.0214255 0.0512906 0.0
0.0223888 0.0524929 0.0
0.0251534 0.0501211 0.0
0.0235684 0.0500545 0.0
0.0224533 0.050371 0.0
0.0374302 0.0429112 0.0
0.036157 0.0587346 0.0
0.0369257 0.0499973 0.0
0.0366217 0.0649181 0.0
0.034943 0.0682221 0.0
0.0362411 0.0618339 0.0
0.0361192 0.0444567 0.0
0.0363094 0.0428681 0.0
0.0317468 0.0442813 0.0
0.0364516 0.041892 0.0
0.0263658 0.0427144 0.0
0.0251308 0.0437621 0.0
0.023118 0.0455908 0.0
0.0241763 0.0447343 0.0
0.0323984 0.0429026 0.0
0.0332031 0.0417573 0.0
0.0271792 0.0415002 0.0
0.0278577 0.0406218 0.0
0.0311824 0.0790146 0.0
0.031693 0.0756494 0.0
0.0323098 0.0720088 0.0
0.0321094 0.0692827 0.0
0.0364462 0.0418018 0.0
0.0357722 0.0525977 0.0
0.0352887 0.0556189 0.0
0.036385 0.0436633 0.0
0.0361005 0.0469374 0.0
0.0373677 0.0464892 0.0
0.035914 0.0405385 0.0
0.0726223 1.14197e-33 0.0
0.0725975 0.0011814 0.0
0.0716261 0.0019965 0.0
0.0716083 0.00293713 0.0
0.070576 0.00383712 0.0
0.0701362 0.00534985 0.0
0.0693954 0.00674482 0.0
0.0640572 0.0136078 0.0
0.0655026 0.0119537 0.0
0.0624682 0.0152032 0.0
0.0607772 0.0170503 0.0
0.0589542 0.0186431 0.0
0.0473987 0.0279148 0.0
0.0535123 0.0235034 0.0
0.0550807 0.0220109 0.0
0.0574461 0.0198539 0.0
0.0516634 0.0247416 0.0
0.0498075 0.0258868 0.0