# vtk DataFile Version 2.0
Vtkoutput example
ASCII

DATASET UNSTRUCTURED_GRID
POINTS 36864 float
0.0201562 0.0201562 0.0
0.0204687 0.0201562 0.0
0.0207812 0.0201562 0.0
0.0210937 0.0201562 0.0
0.0214062 0.0201562 0.0
0.0217187 0.0201562 0.0
0.0220312 0.0201562 0.0
0.0223437 0.0201562 0.0
0.0226562 0.0201562 0.0
0.0229687 0.0201562 0.0
0.0232812 0.0201562 0.0
0.0235937 0.0201562 0.0
0.0239062 0.0201562 0.0
0.0242187 0.0201562 0.0
0.0245312 0.0201562 0.0
0.0248437 0.0201562 0.0
0.0251562 0.0201562 0.0
0.0254687 0.0201562 0.0
0.0257812 0.0201562 0.0
0.0260937 0.0201562 0.0
0.0264062 0.0201562 0.0
0.0267187 0.0201562 0.0
0.0270312 0.0201562 0.0
0.0273438 0.0201562 0.0
0.0276562 0.0201562 0.0
0.0279687 0.0201562 0.0
0.0282813 0.0201562 0.0
0.0285937 0.0201562 0.0
0.0289062 0.0201562 0.0
0.0292187 0.0201562 0.0
0.0295312 0.0201562 0.0
0.0298437 0.0201562 0.0
0.0301563 0.0201562 0.0
0.0304687 0.0201562 0.0
0.0307812 0.0201562 0.0
0.0310937 0.0201562 0.0
0.0314062 0.0201562 0.0
0.0317188 0.0201562 0.0
0.0320312 0.0201562 0.0
0.0323437 0.0201562 0.0
0.0326562 0.0201562 0.0
0.0329688 0.0201562 0.0
0.0332812 0.0201562 0.0
0.0335937 0.0201562 0.0
0.0339062 0.0201562 0.0
0.0342187 0.0201562 0.0
0.0345312 0.0201562 0.0
0.0348437 0.0201562 0.0
0.0351562 0.0201562 0.0
0.0354688 0.0201562 0.0
0.0357813 0.0201562 0.0
0.0360938 0.0201562 0.0
0.0364063 0.0201562 0.0
0.0367188 0.0201562 0.0
0.0370313 0.0201562 0.0
0.0373438 0.0201562 0.0
0.0376563 0.0201562 0.0
0.0379687 0.0201562 0.0
0.0382812 0.0201562 0.0
0.0385938 0.0201562 0.0
0.0389062 0.0201562 0.0
0.0392187 0.0201562 0.0
0.0395313 0.0201562 0.0
0.0398437 0.0201562 0.0
0.0401563 0.0201562 0.0
0.0404687 0.0201562 0.0
0.0407812 0.0201562 0.0
0.0410937 0.0201562 0.0
0.0414062 0.0201562 0.0
0.0417187 0.0201562 0.0
0.0420312 0.0201562 0.0
0.0423437 0.0201562 0.0
0.0426562 0.0201562 0.0
0.0429688 0.0201562 0.0
0.0432813 0.0201562 0.0
0.0435938 0.0201562 0.0
0.0439063 0.0201562 0.0
0.0442188 0.0201562 0.0
0.0445313 0.0201562 0.0
0.0448438 0.0201562 0.0
0.0451562 0.0201562 0.0
0.0454688 0.0201562 0.0
0.0457813 0.0201562 0.0
0.0460938 0.0201562 0.0
0.0464062 0.0201562 0.0
0.0467188 0.0201562 0.0
0.0470312 0.0201562 0.0
0.0473438 0.0201562 0.0
0.0476563 0.0201562 0.0
0.0479687 0.0201562 0.0
0.0482813 0.0201562 0.0
0.0485938 0.0201562 0.0
0.0489062 0.0201562 0.0
0.0492188 0.0201562 0.0
0.0495313 0.0201562 0.0
0.0498437 0.0201562 0.0
0.0501562 0.0201562 0.0
0.0504688 0.0201562 0.0
0.0507812 0.0201562 0.0
0.0510938 0.0201562 0.0
0.0514063 0.0201562 0.0
0.0517187 0.0201562 0.0
0.0520313 0.0201562 0.0
0.0523438 0.0201562 0.0
0.0526563 0.0201562 0.0
0.0529687 0.0201562 0.0
0.0532813 0.0201562 0.0
0.0535938 0.0201562 0.0
0.0539063 0.0201562 0.0
0.0542187 0.0201562 0.0
0.0545313 0.0201562 0.0
0.0548438 0.0201562 0.0
0.0551563 0.0201562 0.0
0.0554688 0.0201562 0.0
0.0557812 0.0201562 0.0
0.0560937 0.0201562 0.0
0.0564062 0.0201562 0.0
0.0567188 0.0201562 0.0
0.0570313 0.0201562 0.0
0.0573438 0.0201562 0.0
0.0576562 0.0201562 0.0
0.0579687 0.0201562 0.0
0.0582813 0.0201562 0.0
0.0585938 0.0201562 0.0
0.0589063 0.0201562 0.0
0.0592188 0.0201562 0.0
0.0595313 0.0201562 0.0
0.0598438 0.0201562 0.0
0.0601563 0.0201562 0.0
0.0604688 0.0201562 0.0
0.0607813 0.0201562 0.0
0.0610938 0.0201562 0.0
0.0614062 0.0201562 0.0
0.0617188 0.0201562 0.0
0.0620313 0.0201562 0.0
0.0623438 0.0201562 0.0
0.0626562 0.0201562 0.0
0.0629688 0.0201562 0.0
0.0632813 0.0201562 0.0
0.0635938 0.0201562 0.0
0.0639062 0.0201562 0.0
0.0642187 0.0201562 0.0
0.0645313 0.0201562 0.0
0.0648438 0.0201562 0.0
0.0651562 0.0201562 0.0
0.0654688 0.0201562 0.0
0.0657812 0.0201562 0.0
0.0660937 0.0201562 0.0
0.0664062 0.0201562 0.0
0.0667188 0.0201562 0.0
0.0670313 0.0201562 0.0
0.0673438 0.0201562 0.0
0.0676563 0.0201562 0.0
0.0679688 0.0201562 0.0
0.0682813 0.0201562 0.0
0.0685938 0.0201562 0.0
0.0689063 0.0201562 0.0
0.0692187 0.0201562 0.0
0.0695313 0.0201562 0.0
0.0698438 0.0201562 0.0
0.0701563 0.0201562 0.0
0.0704687 0.0201562 0.0
0.0707813 0.0201562 0.0
0.0710938 0.0201562 0.0
0.0714063 0.0201562 0.0
0.0717187 0.0201562 0.0
0.0720313 0.0201562 0.0
0.0723437 0.0201562 0.0
0.0726563 0.0201562 0.0
0.0729687 0.0201562 0.0
0.0732813 0.0201562 0.0
0.0735938 0.0201562 0.0
0.0739063 0.0201562 0.0
0.0742188 0.0201562 0.0
0.0745313 0.0201562 0.0
0.0748438 0.0201562 0.0
0.0751563 0.0201562 0.0
0.0754688 0.0201562 0.0
0.0757812 0.0201562 0.0
0.0760938 0.0201562 0.0
0.0764063 0.0201562 0.0
0.0767187 0.0201562 0.0
0.0770313 0.0201562 0.0
0.0773438 0.0201562 0.0
0.0776562 0.0201562 0.0
0.0779688 0.0201562 0.0
0.0782813 0.0201562 0.0
0.0785938 0.0201562 0.0
0.0789063 0.0201562 0.0
0.0792188 0.0201562 0.0
0.0795312 0.0201562 0.0
0.0798438 0.0201562 0.0
0.0201562 0.0204687 0.0
0.0204687 0.0204687 0.0
0.0207812 0.0204687 0.0
0.0210937 0.0204687 0.0
0.0214062 0.0204687 0.0
0.0217187 0.0204687 0.0
0.0220312 0.0204687 0.0
0.0223437 0.0204687 0.0
0.0226562 0.0204687 0.0
0.0229687 0.0204687 0.0
0.0232812 0.0204687 0.0
0.0235937 0.0204687 0.0
0.0239062 0.0204687 0.0
0.0242187 0.0204687 0.0
0.0245312 0.0204687 0.0
0.0248437 0.0204687 0.0
0.0251562 0.0204687 0.0
0.0254687 0.0204687 0.0
0.0257812 0.0204687 0.0
0.0260937 0.0204687 0.0
0.0264062 0.0204687 0.0
0.0267187 0.0204687 0.0
0.0270312 0.0204687 0.0
0.0273438 0.0204687 0.0
0.0276562 0.0204687 0.0
0.0279687 0.0204687 0.0
0.0282813 0.0204687 0.0
0.0285937 0.0204687 0.0
0.0289062 0.0204687 0.0
0.0292187 0.0204687 0.0
0.0295312 0.0204687 0.0
0.0298437 0.0204687 0.0
0.0301563 0.0204687 0.0
0.0304687 0.0204687 0.0
0.0307812 0.0204687 0.0
0.0310937 0.0204687 0.0
0.0314062 0.0204687 0.0
0.0317188 0.0204687 0.0
0.0320312 0.0204687 0.0
0.0323437 0.0204687 0.0
0.0326562 0.0204687 0.0
0.0329688 0.0204687 0.0
0.0332812 0.0204687 0.0
0.0335937 0.0204687 0.0
0.0339062 0.0204687 0.0
0.0342187 0.0204687 0.0
0.0345312 0.0204687 0.0
0.0348437 0.0204687 0.0
0.0351562 0.0204687 0.0
0.0354688 0.0204687 0.0
0.0357813 0.0204687 0.0
0.0360938 0.0204687 0.0
0.0364063 0.0204687 0.0
0.0367188 0.0204687 0.0
0.0370313 0.0204687 0.0
0.0373438 0.0204687 0.0
0.0376563 0.0204687 0.0
0.0379687 0.0204687 0.0
0.0382812 0.0204687 0.0
0.0385938 0.0204687 0.0
0.0389062 0.0204687 0.0
0.0392187 0.0204687 0.0
0.0395313 0.0204687 0.0
0.0398437 0.0204687 0.0
0.0401563 0.0204687 0.0
0.0404687 0.0204687 0.0
0.0407812 0.0204687 0.0
0.0410937 0.0204687 0.0
0.0414062 0.0204687 0.0
0.0417187 0.0204687 0.0
0.0420312 0.0204687 0.0
0.0423437 0.0204687 0.0
0.0426562 0.0204687 0.0
0.0429688 0.0204687 0.0
0.0432813 0.0204687 0.0
0.0435938 0.0204687 0.0
0.0439063 0.0204687 0.0
0.0442188 0.0204687 0.0
0.0445313 0.0204687 0.0
0.0448438 0.0204687 0.0
0.0451562 0.0204687 0.0
0.0454688 0.0204687 0.0
0.0457813 0.0204687 0.0
0.0460938 0.0204687 0.0
0.0464062 0.0204687 0.0
0.0467188 0.0204687 0.0
0.0470312 0.0204687 0.0
0.0473438 0.0204687 0.0
0.0476563 0.0204687 0.0
0.0479687 0.0204687 0.0
0.0482813 0.0204687 0.0
0.0485938 0.0204687 0.0
0.0489062 0.0204687 0.0
0.0492188 0.0204687 0.0
0.0495313 0.0204687 0.0
0.0498437 0.0204687 0.0
0.0501562 0.0204687 0.0
0.0504688 0.0204687 0.0
0.0507812 0.0204687 0.0
0.0510938 0.0204687 0.0
0.0514063 0.0204687 0.0
0.0517187 0.0204687 0.0
0.0520313 0.0204687 0.0
0.0523438 0.0204687 0.0
0.0526563 0.0204687 0.0
0.0529687 0.0204687 0.0
0.0532813 0.0204687 0.0
0.0535938 0.0204687 0.0
0.0539063 0.0204687 0.0
0.0542187 0.0204687 0.0
0.0545313 0.0204687 0.0
0.0548438 0.0204687 0.0
0.0551563 0.0204687 0.0
0.0554688 0.0204687 0.0
0.0557812 0.0204687 0.0
0.0560937 0.0204687 0.0
0.0564062 0.0204687 0.0
0.0567188 0.0204687 0.0
0.0570313 0.0204687 0.0
0.0573438 0.0204687 0.0
0.0576562 0.0204687 0.0
0.0579687 0.0204687 0.0
0.0582813 0.0204687 0.0
0.0585938 0.0204687 0.0
0.0589063 0.0204687 0.0
0.0592188 0.0204687 0.0
0.0595313 0.0204687 0.0
0.0598438 0.0204687 0.0
0.0601563 0.0204687 0.0
0.0604688 0.0204687 0.0
0.0607813 0.0204687 0.0
0.0610938 0.0204687 0.0
0.0614062 0.0204687 0.0
0.0617188 0.0204687 0.0
0.0620313 0.0204687 0.0
0.0623438 0.0204687 0.0
0.0626562 0.0204687 0.0
0.0629688 0.0204687 0.0
0.0632813 0.0204687 0.0
0.0635938 0.0204687 0.0
0.0639062 0.0204687 0.0
0.0642187 0.0204687 0.0
0.0645313 0.0204687 0.0
0.0648438 0.0204687 0.0
0.0651562 0.0204687 0.0
0.0654688 0.0204687 0.0
0.0657812 0.0204687 0.0
0.0660937 0.0204687 0.0
0.0664062 0.0204687 0.0
0.0667188 0.0204687 0.0
0.0670313 0.0204687 0.0
0.0673438 0.0204687 0.0
0.0676563 0.0204687 0.0
0.0679688 0.0204687 0.0
0.0682813 0.0204687 0.0
0.0685938 0.0204687 0.0
0.0689063 0.0204687 0.0
0.0692187 0.0204687 0.0
0.0695313 0.0204687 0.0
0.0698438 0.0204687 0.0
0.0701563 0.0204687 0.0
0.0704687 0.0204687 0.0
0.0707813 0.0204687 0.0
0.0710938 0.0204687 0.0
0.0714063 0.0204687 0.0
0.0717187 0.0204687 0.0
0.0720313 0.0204687 0.0
0.0723437 0.0204687 0.0
0.0726563 0.0204687 0.0
0.0729687 0.0204687 0.0
0.0732813 0.0204687 0.0
0.0735938 0.0204687 0.0
0.0739063 0.0204687 0.0
0.0742188 0.0204687 0.0
0.0745313 0.0204687 0.0
0.0748438 0.0204687 0.0
0.0751563 0.0204687 0.0
0.0754688 0.0204687 0.0
0.0757812 0.0204687 0.0
0.0760938 0.0204687 0.0
0.0764063 0.0204687 0.0
0.0767187 0.0204687 0.0
0.0770313 0.0204687 0.0
0.0773438 0.0204687 0.0
0.0776562 0.0204687 0.0
0.0779688 0.0204687 0.0
0.0782813 0.0204687 0.0
0.0785938 0.0204687 0.0
0.0789063 0.0204687 0.0
0.0792188 0.0204687 0.0
0.0795312 0.0204687 0.0
0.0798438 0.0204687 0.0
0.0201562 0.0207812 0.0
0.0204687 0.0207812 0.0
0.0207812 0.0207812 0.0
0.0210937 0.0207812 0.0
0.0214062 0.0207812 0.0
0.0217187 0.0207812 0.0
0.0220312 0.0207812 0.0
0.0223437 0.0207812 0.0
0.0226562 0.0207812 0.0
0.0229687 0.0207812 0.0
0.0232812 0.0207812 0.0
0.0235937 0.0207812 0.0
0.0239062 0.0207812 0.0
0.0242187 0.0207812 0.0
0.0245312 0.0207812 0.0
0.0248437 0.0207812 0.0
0.0251562 0.0207812 0.0
0.0254687 0.0207812 0.0
0.0257812 0.0207812 0.0
0.0260937 0.0207812 0.0
0.0264062 0.0207812 0.0
0.0267187 0.0207812 0.0
0.0270312 0.0207812 0.0
0.0273438 0.0207812 0.0
0.0276562 0.0207812 0.0
0.0279687 0.0207812 0.0
0.0282813 0.0207812 0.0
0.0285937 0.0207812 0.0
[...]
POINT_DATA 36864
SCALARS Intensity float 1
LOOKUP_TABLE default
0.203118
0.268017
0.230293
0.228911
0.244041
0.205775
0.278601
0.292746
0.263212
0.215439
0.242128
0.305934
0.247591
0.230559
0.329439
0.18292
0.214051
0.247653
0.233148
0.176458
0.0833388
0.226168
0.220062
0.217233
0.30945
0.294023
0.268197
0.161413
0.284001
0.290897
0.188126
0.221651
0.256598
0.254944
0.165374
0.14216
0.256293
0.319537
0.243875
0.241978
0.215353
0.223431
0.203302
0.220692
0.15996
0.279734
0.269479
0.281211
0.209862
0.244407
0.289172
0.220133
0.323856
0.324763
0.247074
0.17058
0.243604
0.237286
0.311051
0.288884
0.247157
0.217001
0.231408
0.291845
0.222767
0.174989
0.313367
0.252314
0.295571
0.204216
0.33705
0.210551
0.319631
0.137723
0.253437
0.179036
0.244512
0.192115
0.261955
0.250409
0.275303
0.243739
0.31963
0.296058
0.174412
0.205259
0.262095
0.225813
0.230411
0.162712
0.269513
0.256538
0.267682
0.197641
0.198979
0.201604
0.317597
0.417988
0.251113
0.154216
0.283923
0.149383
0.272094
0.308309
0.181237
0.243778
0.23248
0.211482
0.311502
0.315315
0.240801
0.270595
0.280146
0.253235
0.322116
0.256595
0.216003
0.30247
0.245882
0.223659
0.273007
0.16708
0.273703
0.247967
0.287913
0.257225
0.294388
0.17523
0.230417
0.296779
0.236631
0.223992
0.15582
0.098792
0.319156
0.215939
0.278573
0.284338
0.260007
0.198828
0.192972
0.198152
0.226371
0.25595
0.261355
0.203978
0.266681
0.243961
0.29482
0.18157
0.257357
0.225684
0.244775
0.220326
0.194301
0.275221
0.18958
0.224589
0.27179
0.233369
0.307216
0.229046
0.31105
0.295348
0.220064
0.278077
0.232832
0.287748
0.224165
0.271725
0.213528
0.330259
0.212031
0.242003
0.310026
0.229719
0.220905
0.2502
0.272524
0.233302
0.274892
0.275476
0.342265
0.20515
0.292827
0.28749
0.185002
0.282245
0.241498
0.18616
0.358276
0.270259
0.271801
0.178753
0.138472
0.254876
0.260882
0.197372
0.29318
0.198487
0.175264
0.304142
0.284964
0.16799
0.255216
0.232155
0.255254
0.2797
0.183512
0.317768
0.326055
0.240756
0.272128
0.237789
0.321807
0.21707
0.246217
0.216169
0.20359
0.254919
0.153547
0.214204
0.279392
0.295755
0.273955
0.275331
0.205735
0.22225
0.318959
0.228333
0.232484
0.260103
0.305486
0.247388
0.222988
0.344017
0.320069
0.197479
0.358025
0.159087
0.222922
0.231459
0.259525
0.250451
0.218143
0.227099
0.322375
0.233081
0.185501
0.163031
0.248778
0.279743
0.264706
0.324202
0.28821
0.276586
0.275283
0.235979
0.224441
0.268063
0.236585
0.252017
0.222325
0.310497
0.219628
0.274699
0.233589
0.225791
0.2869
0.214292
0.304364
0.216591
0.250134
0.231043
0.299328
0.250226
0.207635
0.337866
0.211009
0.159259
0.193023
0.247507
0.322028
0.189367
0.201929
0.235935
0.218624
0.192361
0.240318
0.298799
0.19032
0.247713
0.270379
0.232618
0.243043
0.272398
0.254171
0.275633
0.273848
0.241602
0.26676
0.356674
0.239745
0.220507
0.218392
0.184699
0.291543
0.182242
0.202799
0.317304
0.185698
0.253265
0.321678
0.173517
0.234566
0.197836
0.248035
0.22157
0.317533
0.319651
0.282256
0.158541
0.324851
0.27224
0.301017
0.248046
0.278097
0.309398
0.266903
0.221575
0.146569
0.300702
0.216307
0.253657
0.325432
0.212957
0.21794
0.257825
0.253719
0.32329
0.259093
0.329779
0.192054
0.216082
0.221536
0.230552
0.155998
0.173477
0.255711
0.363157
0.258225
0.129515
0.235369
0.213921
0.209541
0.295337
0.171416
0.288251
0.269651
0.206688
0.256525
0.267675
0.243643
0.276313
0.247062
0.231107
0.368189
0.188024
0.25897
0.238201
0.276731
0.218177
0.255572
0.183484
0.262027
0.166212
0.279567
0.212821
0.235843
0.25672
0.263821
0.277344
0.265688
0.191538
0.293085
0.276351
0.206138
0.257724
0.218578
0.244528
0.161954
0.274983
0.285132
0.21565
0.312564
0.24542
0.235675
0.271849
0.372672
0.240699
0.252526
0.181864
0.283079
0.331597
0.32196
0.24373
0.241001
0.296698
0.252864
0.253711
0.208058
0.227562
0.201176
0.282791
0.35737
0.223014
0.308469
0.219594
0.17335
0.168591
0.275187
0.21077
0.327367
0.236915
0.292997
0.247106
0.203672
0.294148
0.23969
0.223033
0.258734
0.245525
0.286378
0.26833
0.259899
0.266845
0.319828
0.293063
0.210146
0.290827
0.317892
0.257684
0.337398
0.210733
0.316763
0.33155
0.352341
0.18226
0.215328
0.181153
0.173905
0.293108
0.218689
0.272888
0.320033
0.285906
0.174081
0.25329
0.366206
0.195802
0.226996
0.180534
0.182773
0.241605
0.238552
0.314654
0.195356
0.26532
0.216402
0.255538
0.221496
0.282911
0.1484
0.244487
0.259379
0.282959
0.202794
0.199146
0.275696
0.200336
0.282036
0.260408
0.164524
0.239585
0.204599
0.213069
0.282627
0.120812
0.214079
0.235486
0.215188
0.250214
0.233801
0.22136
0.209025
0.257549
0.224628
0.255241
0.204374
0.38762
0.242479
0.27739
0.253381
0.257265
0.347874
0.300061
0.413006
0.238895
0.224447
0.264388
0.19432
0.250734
0.235318
0.132806
0.269532
0.207312
0.131279
0.266441
0.352056
0.325024
0.194777
0.192016
0.205033
0.209011
0.2189
0.306484
0.259619
0.176596
0.243821
0.282441
0.248799
0.268177
0.215766
0.303319
0.226339
0.302517
0.255055
0.281465
0.205895
0.262212
0.222124
0.228042
0.307771
0.294943
0.277707
0.202842
0.259971
0.220508
0.314364
0.224997
0.201353
0.232368
0.292859
0.345502
0.234881
0.241938
0.291903
0.361715
0.293079
0.358278
0.292327
0.267958
0.230892
0.233333
0.256356
0.21209
0.235356
0.188872
0.211494
0.268033
0.235812
0.0680381
0.237042
0.249015
0.285177
0.226152
0.261382
0.299563
0.321044
0.125572
0.223087
0.248288
0.24621
0.16712
0.296607
0.304367
0.164072
0.24069
0.248469
0.162762
0.247079
0.195435
0.0902512
0.190359
0.243164
0.214326
0.138861
0.264541
0.272449
0.251706
0.335486
0.217457
0.169126
0.252627
0.300695
0.331035
0.259471
0.262559
0.288135
0.164047
0.176819
0.185295
0.306757
0.236871
0.284376
0.25797
0.211921
0.356973
0.307932
0.219539
0.227806
0.275229
0.314701
0.242893
0.282631
0.277957
0.239491
0.240402
0.237881
0.190194
0.325942
0.294268
0.201483
0.234785
0.280776
0.265778
0.243692
0.295888
0.263477
0.194621
0.238519
0.258807
0.257092
0.29457
0.239613
0.202851
0.16032
0.194967
0.304243
0.241902
0.14764
0.301636
0.271429
0.233657
0.201409
0.254531
0.312221
0.248332
0.280605
0.310126
0.177725
0.219641
0.286956
0.25946
0.28259
0.24946
0.205314
0.231993
0.267601
0.293857
0.233083
0.331799
0.229874
0.276842
0.315522
0.289646
0.241329
0.190345
0.336521
0.239248
0.265689
0.27155
0.313561
0.234369
0.273196
0.331175
0.246411
0.243717
0.237239
0.265135
0.277392
0.247025
0.203625
0.212646
0.198864
0.210457
0.316748
0.237155
0.165383
0.267739
0.130573
0.179186
0.256431
0.289081
0.103294
0.268547
0.309306
0.218222
0.290056
0.395313
0.205263
0.255381
0.203984
0.260759
0.264886
0.285572
0.238272
0.286139
0.37909
0.26325
0.298649
0.264538
0.175563
0.333985
0.297593
0.261217
0.232638
0.342451
0.243275
0.193015
0.285063
0.18401
0.210962
0.289937
0.251175
0.350454
0.231126
0.286096
0.283557
0.316522
0.300757
0.262702
0.227752
0.204086
0.286858
0.31547
0.25076
0.231907
0.268783
0.27596
0.186609
0.186319
0.202026
0.205418
0.240954
0.295525
0.230307
0.242036
0.312665
0.304678
0.265319
0.246595
0.174312
0.347581
0.260751
0.134272
0.245657
0.324253
0.246346
0.283579
0.203768
0.256107
0.211596
0.212378
0.199083
0.203009
0.242152
0.264321
0.268436
0.246552
0.185167
0.240998
0.16948
0.228559
0.207977
0.233236
0.266236
0.148751
0.198472
0.234064
0.254371
0.254433
0.276795
0.298369
0.202182
0.264979
0.231043
0.300005
0.318399
0.256471
0.211237
0.234548
0.24071
0.235135
0.257241
0.300522
0.27409
0.344327
0.222464
0.242151
0.277064
0.252476
0.269716
0.288355
0.371695
0.302311
0.296855
0.251051
0.262489
0.22867
0.172323
0.234954
0.306515
0.244384
0.263828
0.373339
0.26473
0.354728
0.248146
0.206201
0.24912
0.292559
0.16466
0.286601
0.22602
0.236126
0.202468
0.245945
0.160744
0.191547
0.301867
0.323698
0.243847
0.2916
0.326257
0.264704
0.217318
0.312437
0.268393
0.333688
0.350416
0.164181
0.310387
0.163203
0.166501
0.24308
0.246091
0.193727
0.239166
0.190075
0.247069
0.28155
0.223868
0.22826
0.21564
0.301622
0.265881
0.196142
0.224261
0.202256
0.264268
0.310563
0.206225
0.303991
0.201107
0.193545
0.16246
0.145334
0.260396
0.330312
0.152266
0.277954
0.257093
0.240174
0.158094
0.270266
0.357993
0.284994
0.287747
0.259711
0.26635
0.279296
0.239713
0.206887
0.334115
0.21989
0.323815
0.108575
0.19876
0.229875
0.254708
0.232114
0.236732
0.266233
0.263307
0.284389
0.286898
0.26727
0.270715
0.293657
0.313319
0.267814
0.240849
0.246627
0.21282
0.297533
0.20378
0.206419
0.218614
0.293116
0.266459
0.237939
0.240247
0.215584
0.23253
0.286913
0.15942
0.223737
0.212901
0.304049
0.22478
0.300159
0.247621
0.284989
0.30694
0.205824
0.314057
0.275123
0.285107
0.324523
0.305476
0.314202
0.231992
0.32994
0.242333
0.251875
0.252147
0.253622
0.323533
0.289032
0.272269
0.29896
0.203462
0.214935
0.23385
0.223034
0.178838
0.217779
0.259301
0.225546
0.310156
0.242211
0.202206
0.218522
0.255555
0.250924
0.275038
0.244988
0.25168
0.236483
0.32188
0.284844
0.227222
0.278709
0.198797
0.219127
0.205929
0.264379
0.305962
0.306092
0.228372
0.182508
0.251135
0.189978
0.265463
0.250788
0.167944
0.114214
0.230893
0.183449
0.334215
0.287966
0.361082
0.213141
0.214943
0.314163
0.335073
0.291975
0.219232
0.290295
0.188262
0.201238
0.225118
0.252089
0.234537
0.220837
0.228813
0.287706
0.229195
0.254747
0.289135
0.300796
0.289868
0.258643
0.274689
0.323749
0.208151
0.251986
0.337174
0.243915
0.228271
0.242819
0.168182
0.286792
0.28578
0.282724
0.219696
0.170478
0.274698
0.256319
0.17994
0.204565
0.292844
0.229116
0.22626
0.263919
0.240002
0.256883
0.199963
0.161724
0.290048
0.252
0.179172
0.261039
0.233811
0.270375
0.424465
0.311046
0.274403
0.179824
0.21795
0.217501
0.259372
0.222975
0.255728
0.268168
0.236841
0.239773
0.311049
0.235471
0.2532
0.237606
0.221269
0.312559
0.243724
0.345966
0.226533
0.262401
0.30994
0.258435
0.275469
0.286071
0.14441
0.316572
0.277407
0.231187
0.247711
0.302683
0.408176
0.226905
0.184091
0.250368
0.317979
0.185618
0.237448
0.291065
0.180188
0.240244
0.262603
0.183558
0.313325
0.191048
0.213858
0.249195
0.129386
0.315334
0.212045
0.144418
0.352195
0.239846
0.235728
0.258634
0.345914
0.230425
0.284168
0.198666
0.236518
0.213804
0.216757
0.285543
0.179394
0.246846
0.212716
0.269563
0.304461
0.217238
0.205755
0.24384
0.310695
0.190565
0.204396
0.183148
0.256173
0.199919
0.345563
0.23442
0.309542
0.218603
0.307135
0.156246
0.10412
0.244071
0.252298
0.274923
0.28802
0.160261
0.261579
0.187676
0.238212
0.21456
0.272262
0.224896
0.229979
0.248588
0.205649
0.245714
0.284742
0.266992
0.267678
0.194377
0.19049
0.251867
0.322714
0.1732
0.272705
0.129567
0.244779
0.23406
0.283894
0.211293
0.267623
0.215906
0.220504
0.276927
0.206185
0.273783
0.269187
0.124218
0.317866
0.221487
0.288479
0.278927
0.306936
0.224597
0.170463
0.322025
0.346381
0.268472
0.187392
0.210774
0.204749
0.306229
0.257897
0.239111
0.222667
0.271535
0.210818
0.139983
0.269909
0.313776
0.281506
0.259765
0.257405
0.157371
0.268066
0.193818
0.377596
0.328062
0.307643
0.236356
0.340411
0.179229
0.271799
0.262121
0.313965
0.240484
0.248116
0.166724
0.267031
0.242245
0.37246
0.320771
0.292123
0.23252
0.330263
0.215904
0.138709
0.280249
0.242824
0.239296
0.322033
0.137736
0.226943
0.242138
0.247332
0.327182
0.243491
0.231734
0.209573
0.206666
0.258751
0.206586
0.293184
0.272179
0.326687
0.211544
0.355548
0.31617
0.306223
0.251793
0.288156
0.260361
0.282055
0.275398
0.325288
0.225441
0.202186
0.19866
0.223468
0.20653
0.26504
0.358899
0.144716
0.182437
0.301583
0.188482
0.236145
0.288664
0.235113
0.279142
0.355542
0.257943
0.207651
0.259849
0.387151
0.192388
0.292765
0.28152
0.31172
0.262191
0.288697
0.344504
0.329266
0.161982
0.220633
0.21075
0.363226
0.219894
0.234239
0.182383
0.288478
0.200025
0.262665
0.253527
0.302984
0.17859
0.189252
0.182239
0.28694
0.29746
0.299407
0.178114
0.38996
0.245598
0.280841
0.239843
0.242515
0.211351
0.23983
0.231144
0.219719
0.268812
0.277847
0.146409
0.268463
0.284847
0.324536
0.220899
0.218361
0.287292
0.304859
0.330571
0.136925
0.134665
0.150815
0.250747
0.251162
0.261076
0.273767
0.289475
0.284108
0.35619
0.264414
0.273089
0.202512
0.245531
0.194806
0.174957
0.199685
0.358173
0.323516
0.198632
0.152793
0.256219
0.220525
0.422405
0.232132
0.330946
0.266231
0.250784
0.243704
0.289984
0.151494
0.24761
0.216898
0.286552
0.249148
0.254922
0.20254
0.301476
0.244689
0.225532
0.2316
0.283136
0.208955
0.330423
0.231005
0.179021
0.266429
0.179743
0.208371
0.242537
0.18592
0.236117
0.341011
0.212637
0.20742
0.270217
0.241532
0.27604
0.271901
0.330716
0.23846
0.310812
0.255336
0.263858
0.258758
0.230568
0.32382
0.325567
0.317305
0.249768
0.206736
0.230869
0.240732
0.321107
0.227324
0.291536
0.292841
0.174647
0.194016
0.199256
0.233972
0.19309
0.43495
0.272866
0.275011
0.188905
0.325295
0.192277
0.269305
0.231164
0.286566
0.224363
0.217489
0.318561
0.249962
0.277643
0.322744
0.190999
0.231869
0.254591
0.30509
0.27468
0.295528
0.322232
0.211935
0.252358
0.247033
0.333005
0.325032
0.230584
0.227654
0.188975
0.233213
0.235989
0.177585
0.22419
0.220895
0.188288
0.238896
0.259414
0.318315
0.2724
0.26432
0.30078
0.231283
0.347433
0.280804
0.288786
0.138461
0.258933
0.286072
0.261031
0.331654
0.344577
0.240386
0.242087
0.203597
0.190314
0.123733
0.30855
0.208197
0.260842
0.178102
0.281347
0.275112
0.245307
0.233554
0.206702
0.242929
0.279288
0.187098
0.309488
0.275297
0.239887
0.201322
0.143731
0.258592
0.208614
0.258006
0.247613
0.236473
0.297512
0.274629
0.250099
0.260736
0.259176
0.318063
0.143887
0.356779
0.267253
0.257639
0.210943
0.297578
0.190954
0.271576
0.252103
0.220855
0.260855
0.265615
0.233865
0.230336
0.172641
0.322306
0.303939
0.200887
0.19906
0.224876
0.204795
0.258282
0.259239
0.252389
0.180682
0.308575
0.278925
0.136029
0.27285
0.257859
0.308288
0.226794
0.19535
0.230027
0.252358
0.282366
0.215307
0.332318
0.205988
0.183419
0.266846
0.278577
0.250656
0.232299
0.222733
0.220571
0.221804
0.250484
0.251596
0.292832
0.176219
0.226544
0.262282
0.217113
0.283643
0.203927
0.232547
0.203595
0.264306
0.206312
0.311223
0.295674
0.176519
0.273838
0.228037
0.209804
0.224704
0.274421
0.210968
0.272859
0.238
0.297068
0.341859
0.230948
0.323397
0.169297
0.256667
0.320081
0.247865
0.269168
0.258478
0.209567
0.279675
0.145659
0.210177
0.255023
0.265272
0.21852
0.26348
0.278086
0.28904
0.229826
0.310753
0.297364
0.284188
0.253784
0.15987
0.11532
0.248033
0.210449
0.242992
0.264878
0.290725
0.278615
0.229126
0.318725
0.247694
0.317623
0.237868
0.239845
0.348915
0.311055
0.248284
0.254957
0.235646
0.21766
0.306949
0.187772
0.276258
0.241518
0.226902
0.237164
0.284553
0.281127
0.236513
0.296062
0.240741
0.310696
0.241293
0.204772
0.230765
0.272764
0.209336
0.252636
0.255702
0.25734
0.203641
0.228823
0.2684
0.312117
0.19684
0.294268
0.19872
0.308482
0.230844
0.269631
0.227129
0.318259
0.216714
0.271629
0.272328
0.278826
0.2624
0.161821
0.259757
0.308978
0.201101
0.199018
0.283116
0.229619
0.300815
0.252009
0.273431
0.243542
0.244658
0.375615
0.245425
0.267143
0.30554
0.195114
0.284244
0.193566
0.216044
0.182995
0.197054
0.267948
0.200939
0.314274
0.25694
0.269207
0.288861
0.286407
0.249586
0.240668
0.223322
0.288404
0.252954
0.31155
0.177534
0.407313
0.224707
0.329726
0.286938
0.287891
0.272025
0.207514
0.255349
0.358104
0.246657
0.181928
0.237243
0.213892
0.274921
0.277514
0.226901
0.307288
0.305672
0.28798
0.210274
0.217939
0.240023
0.294701
0.205205
0.22249
0.206035
0.175826
0.284185
0.205151
0.181637
0.265794
0.211431
0.187604
0.241539
0.269895
0.226023
0.225591
0.26848
0.180359
0.265595
0.348482
0.240938
0.251177
0.282686
0.241518
0.216713
0.257349
0.311263
0.270141
0.274593
0.215411
0.112985
0.152922
0.253217
0.171965
0.234208
0.212477
0.246481
0.213254
0.263685
0.298626
0.21906
0.125472
0.297326
0.212219
0.253457
0.231123
0.182071
0.316843
0.368262
0.276569
0.240323
0.262782
0.258179
0.243222
0.248621
0.241535
0.222424
0.155449
0.199128
0.26379
0.194229
0.211314
0.146469
0.2392
0.119154
0.271547
0.310754
0.286496
0.147391
0.264647
0.255238
0.275348
0.220452
0.372767
0.222414
0.289659
0.271081
0.297088
0.287762
0.290369
0.233245
0.273205
0.277036
0.289592
0.245761
0.169286
0.233369
0.24354
0.202846
0.333199
0.199145
0.127802
0.22784
0.293249
0.224662
0.22352
0.197927
0.215541
0.23529
0.261565
0.203597
0.231803
0.193812
0.275812
0.221121
0.193884
0.228279
0.278203
0.231161
0.264476
0.23074
0.301207
0.301678
0.246711
0.289736
0.155229
0.266599
0.229078
0.227622
0.242647
0.202881
0.156895
0.154579
0.25918
0.191821
0.235767
0.26952
0.253474
0.190239
0.237545
0.277442
0.168561
0.267941
0.251385
0.261729
0.237387
0.309996
0.307624
0.157803
0.29712
0.217815
0.184606
0.244148
0.307675
0.239378
0.217422
0.295662
0.218854
0.25184
0.16507
0.265087
0.330153
0.176744
0.19453
0.290174
0.279641
0.288768
0.164652
0.262598
0.344257
0.305322
0.271604
0.210157
0.20427
0.162704
0.280875
0.26695
0.148965
0.36208
0.248611
0.19017
0.229482
0.223307
0.216724
0.252629
0.190659
0.289289
0.157237
0.273062
0.314212
0.185928
0.314118
0.152662
0.257681
0.278636
0.25346
0.175754
0.29897
0.295869
0.253094
0.223228
0.274782
0.275284
0.221038
0.305955
0.158089
0.265164
0.220733
0.182621
0.306793
0.291366
0.252226
0.160328
0.165735
0.200119
0.245055
0.1932
0.390334
0.301305
0.306247
0.249254
0.185322
0.278158
0.281617
0.20172
0.183391
0.279281
0.216935
0.18589
0.201903
0.203117
0.190961
0.236271
0.208571
0.23127
0.251161
0.262301
0.285129
0.242998
0.290117
0.245576
0.232798
0.183567
0.237803
0.265765
0.172771
0.209979
0.243949
0.27056
0.216964
0.284534
0.269408
0.20989
0.233824
0.26073
0.192642
0.239687
0.132005
0.305455
0.275968
0.253225
0.236708
0.237973
0.18965
0.297153
0.261211
0.322902
0.232931
0.289044
0.270229
0.261733
0.223851
0.136616
0.23613
0.268711
0.230518
0.271351
0.241792
0.281475
0.233614
0.291056
0.169259
0.260371
0.333375
0.289421
0.20879
0.166649
0.234911
0.230481
0.25726
0.183285
0.323299
0.360131
0.276003
0.187647
0.332482
0.328745
0.236875
0.314819
0.258221
0.201657
0.25162
0.346133
0.232751
0.225635
0.193351
0.320644
0.162264
0.159565
0.250601
0.174428
0.290691
0.322087
0.239601
0.238773
0.27669
0.267629
0.230611
0.254829
0.23875
0.264585
0.25556
0.258861
0.246259
0.22713
0.223556
0.191323
0.202978
0.256029
0.235823
0.193226
0.267701
0.302694
0.164692
0.31374
0.228878
0.184606
0.18917
0.216388
0.267325
0.249742
0.290775
0.288638
0.326371
0.270952
0.25539
0.168316
0.266045
0.216686
0.133609
0.332567
0.179497
0.318565
0.208864
0.302225
0.18679
0.21918
0.25017
0.314745
0.300926
0.245926
0.268726
0.207831
0.26364
0.240657
0.244201
0.220583
0.207437
0.261657
0.218307
0.236434
0.327363
0.254917
0.216285
0.231535
0.320623
0.198825
0.260338
0.169935
0.274294
0.287598
0.24111
0.239304
0.218371
0.233852
0.225334
0.289943
0.288558
0.260994
0.315855
0.231585
0.278088
0.300016
0.309361
0.260534
0.271381
0.239559
0.205434
0.180084
0.207826
0.278425
0.261533
0.311261
0.257499
0.28819
0.276548
0.17445
0.343839
0.247424
0.227563
0.263751
0.308476
0.16917
0.178198
0.241173
0.166063
0.272659
0.273353
0.34059
0.292497
0.363046
0.370306
0.186261
0.246058
0.137606
0.233152
0.184883
0.360147
0.27132
0.221589
0.295234
0.311608
0.220533
0.272862
0.257324
0.3038
0.237306
0.284008
0.252436
0.301366
0.302319
0.194532
0.242145
0.31216
0.322124
0.252608
0.288655
0.254998
0.269873
0.208719
0.257129
0.269663
0.276104
0.278438
0.225906
0.24211
0.260125
0.233247
0.249918
0.296872
0.267993
0.213578
0.20112
0.249992
0.24804
0.225699
0.305157
0.207936
0.222165
0.274369
0.282054
0.325399
0.202148
0.303871
0.277454
0.23374
0.214096
0.211864
0.242604
0.205828
0.308944
0.198691
0.173632
0.29786
0.302549
0.277009
0.243492
0.267252
0.226986
0.273936
0.315867
0.296087
0.371023
0.240109
0.190265
0.246059
0.201495
0.224193
0.311196
0.142909
0.237191
0.385441
0.213903
0.270105
0.224184
0.269059
0.339167
0.223772
0.244098
0.273748
0.184636
0.250206
0.14098
0.304499
0.193184
0.245201
0.228317
0.242924
0.202927
0.204161
0.231778
0.253782
0.23773
0.286914
0.364068
0.23648
0.169263
0.350458
0.275199
0.222349
0.237543
0.235027
0.235119
0.266828
0.185722
0.230197
0.317186
0.238702
0.276454
0.223891
0.273308
0.235939
0.213856
0.216563
0.257445
0.30002
0.24813
0.181333
0.265996
0.26777
0.232266
0.258251
0.31313
0.256444
0.306348
0.171243
0.229836
0.264494
0.171028
0.318203
0.205058
0.205865
0.26237
0.180105