# vtk DataFile Version 2.0
Vtkoutput example
ASCII

DATASET UNSTRUCTURED_GRID
POINTS 3393 float
0.1 0.1 0.0
0.098 0.1 0.0
0.1 0.098 0.0
0.1 0.096 0.0
0.096 0.1 0.0
0.097 0.098 0.0
0.0986667 0.0973333 0.0
0.0985 0.0955 0.0
0.1 0.094 0.0
0.0955 0.0985 0.0
0.094 0.1 0.0
0.0946667 0.0973333 0.0
0.096 0.096 0.0
0.0973333 0.0946667 0.0
0.0986667 0.0933333 0.0
0.1 0.092 0.0
0.0933333 0.0986667 0.0
0.092 0.1 0.0
0.0928571 0.0971429 0.0
0.1 0.09 0.0
0.0942857 0.0957143 0.0
0.0957143 0.0942857 0.0
0.097 0.0925 0.0
0.0985 0.09125 0.0
0.0914286 0.0985714 0.0
0.09 0.1 0.0
0.0925 0.0955 0.0
0.091 0.097 0.0
0.1 0.088 0.0
0.0985 0.0895 0.0
0.094 0.094 0.0
0.0955 0.0925 0.0
0.097 0.091 0.0
0.1 0.086 0.0
0.1 0.084 0.0
0.0895 0.0985 0.0
0.088 0.1 0.0
0.0885455 0.0970909 0.0
0.0923636 0.0927273 0.0
0.0910909 0.0941818 0.0
0.0898182 0.0956364 0.0
0.0986 0.0874 0.0
0.0961818 0.0883636 0.0
0.0936364 0.0912727 0.0
0.0949091 0.0898182 0.0
0.1 0.082 0.0
0.0984615 0.0833846 0.0
0.0973333 0.085 0.0
0.0872727 0.0985455 0.0
0.086 0.1 0.0
0.0869091 0.0970909 0.0
0.088 0.0955 0.0
0.092 0.091 0.0
0.0906667 0.0925 0.0
0.0889231 0.0930769 0.0
0.096 0.0865 0.0
0.0946667 0.088 0.0
0.0933333 0.0895 0.0
0.1 0.08 0.0
0.0985714 0.0814286 0.0
0.0971429 0.0828571 0.0
0.0957143 0.0842857 0.0
0.0854545 0.0985455 0.0
0.084 0.1 0.0
0.0861538 0.0958462 0.0
0.0847692 0.0972308 0.0
0.0857143 0.0942857 0.0
0.0871429 0.0928571 0.0
0.0913333 0.0896333 0.0
0.09 0.0911167 0.0
0.0885714 0.0914286 0.0
0.0942857 0.0857143 0.0
0.0928571 0.0871429 0.0
0.0906667 0.0882667 0.0
0.1 0.078 0.0
0.098625 0.079375 0.0
0.09725 0.08075 0.0
0.095875 0.082125 0.0
0.0945 0.0835 0.0
0.0833846 0.0986154 0.0
0.082 0.1 0.0
0.084875 0.093125 0.0
0.0842857 0.0957143 0.0
0.0830769 0.0972308 0.0
0.0835 0.0945 0.0
0.08625 0.09175 0.0
0.087625 0.090375 0.0
0.0893333 0.0897333 0.0
0.093125 0.084875 0.0
0.09175 0.08625 0.0
0.0891357 0.0873574 0.0
0.1 0.076 0.0
0.098197 0.0772717 0.0
0.0926984 0.0827722 0.0
0.0963637 0.079105 0.0
0.0951033 0.0803654 0.0
0.094072 0.0813967 0.0
0.1 0.074 0.0
0.0815385 0.0986154 0.0
0.08 0.1 0.0
0.0828174 0.0926533 0.0
0.0843062 0.0915861 0.0
0.082125 0.095875 0.0
0.08075 0.09725 0.0
0.0816127 0.094489 0.0
0.0856439 0.0901754 0.0
0.0876149 0.0884116 0.0
0.0911389 0.0843237 0.0
0.0893719 0.085386 0.0
0.0876048 0.0864482 0.0
0.1 0.072 0.0
0.0905279 0.0823975 0.0
0.098107 0.0753422 0.0
0.0963941 0.0765433 0.0
0.0922717 0.0806694 0.0
0.0950191 0.0779183 0.0
0.0936441 0.0792933 0.0
0.0981655 0.0733813 0.0
0.1 0.07 0.0
0.0810321 0.0929181 0.0
0.079375 0.098625 0.0
0.078 0.1 0.0
0.0822495 0.0912147 0.0
0.0836628 0.0899757 0.0
0.0800669 0.0954019 0.0
0.0784642 0.0961609 0.0
0.0793838 0.0935539 0.0
0.1 0.068 0.0
0.0849768 0.0887999 0.0
0.0862908 0.0876241 0.0
0.0890613 0.0834412 0.0
0.0875948 0.0844848 0.0
0.085696 0.0853319 0.0
0.0887508 0.0814963 0.0
0.0981243 0.071385 0.0
0.0899168 0.0804712 0.0
0.096214 0.0746843 0.0
0.0945911 0.075815 0.0
0.0918451 0.0785666 0.0
0.0932161 0.07719 0.0
0.096331 0.0727626 0.0
0.098173 0.0694169 0.0
0.0804185 0.0912582 0.0
0.0773169 0.0981519 0.0
0.0834389 0.0881583 0.0
0.076 0.1 0.0
0.0816817 0.0897761 0.0
0.0784747 0.0910943 0.0
0.0778381 0.0944669 0.0
0.0766338 0.0963039 0.0
0.0773258 0.0930808 0.0
0.1 0.066 0.0
0.0980717 0.0675033 0.0
0.0837973 0.0861789 0.0
0.0875847 0.0825215 0.0
0.0860677 0.0835918 0.0
0.0838144 0.0844188 0.0
0.0875748 0.0805903 0.0
0.0962487 0.07077 0.0
0.0893156 0.0785758 0.0
0.0943211 0.0740265 0.0
0.0927882 0.0750866 0.0
0.0905348 0.0773536 0.0
0.0916935 0.0761887 0.0
0.0944965 0.0721439 0.0
0.0962487 0.068995 0.0
0.0797275 0.0895791 0.0
0.0753256 0.0981221 0.0
0.081901 0.0875168 0.0
0.074 0.1 0.0
0.0799998 0.087873 0.0
0.0777958 0.0893845 0.0
0.0765309 0.0909304 0.0
0.0759508 0.0944558 0.0
0.0746513 0.0962441 0.0
0.0752677 0.0926078 0.0
0.1 0.064 0.0
0.0980715 0.065622 0.0
0.0961433 0.0670066 0.0
0.1 0.062 0.0
0.0822017 0.0848711 0.0
0.0857167 0.08171 0.0
0.0838316 0.0826587 0.0
0.0821855 0.0833942 0.0
0.087565 0.0786839 0.0
0.0859592 0.0798967 0.0
0.094373 0.070155 0.0
0.0875552 0.0767775 0.0
0.089045 0.0770656 0.0
0.0924281 0.0733687 0.0
0.0909919 0.0743609 0.0
0.0898992 0.0755082 0.0
0.0926621 0.0715252 0.0
0.094373 0.0684925 0.0
0.0733636 0.0981791 0.0
0.0807514 0.0853753 0.0
0.072 0.1 0.0
0.0793012 0.0858794 0.0
0.0781556 0.0872678 0.0
0.0768124 0.0880001 0.0
0.0758641 0.0891898 0.0
0.0745871 0.0907665 0.0
0.0737701 0.0945377 0.0
0.0727271 0.0963582 0.0
0.0733026 0.0924882 0.0
0.0981159 0.0636517 0.0
0.0961431 0.065244 0.0
0.094215 0.0665098 0.0
0.1 0.06 0.0
0.1 0.058 0.0
0.0980438 0.0616591 0.0
0.0806061 0.0835633 0.0
0.0838488 0.0808986 0.0
0.0821692 0.0819174 0.0
0.0843436 0.079203 0.0
0.0855479 0.0782935 0.0
0.0924974 0.06954 0.0
0.0862047 0.076224 0.0
0.0875454 0.0748711 0.0
0.0905604 0.0727196 0.0
0.0892637 0.0736628 0.0
0.0908521 0.0709147 0.0
0.0924974 0.0679901 0.0
0.0713652 0.0981371 0.0
0.0786026 0.0838859 0.0
0.07 0.1 0.0
0.077918 0.0854256 0.0
0.0763113 0.0866627 0.0
0.075045 0.087612 0.0
0.0722935 0.0909205 0.0
0.0739324 0.0889951 0.0
0.0720907 0.0945373 0.0
0.0708852 0.0961668 0.0
0.0714542 0.0927165 0.0
0.1 0.056 0.0
0.0962318 0.0633034 0.0
0.0942146 0.0648661 0.0
0.0922867 0.0660131 0.0
0.0980743 0.059684 0.0
0.0980962 0.0577067 0.0
0.0960877 0.0613181 0.0
0.0790106 0.0822554 0.0
0.0805068 0.0811761 0.0
0.082003 0.0800968 0.0
0.0835309 0.077903 0.0
0.0845277 0.0764485 0.0
0.0845083 0.0750168 0.0
0.090665 0.0689392 0.0
0.0860061 0.0742453 0.0
0.0890937 0.0703217 0.0
0.0875356 0.0729647 0.0
0.088746 0.0720891 0.0
0.090665 0.0674992 0.0
0.0694777 0.0981371 0.0
0.077443 0.0817411 0.0
0.0767584 0.0832807 0.0
0.068 0.1 0.0
0.0756128 0.0846691 0.0
0.0744671 0.0860575 0.0
0.0708263 0.0909199 0.0
0.0732776 0.0872238 0.0
0.0715811 0.0891753 0.0
0.0703279 0.0942502 0.0
0.0689554 0.0962741 0.0
0.0694608 0.0925482 0.0
0.1 0.054 0.0
0.0980962 0.0558325 0.0
0.0943477 0.0629551 0.0
0.0924636 0.0641318 0.0
0.0904216 0.0655327 0.0
0.0961923 0.0556649 0.0
0.0961923 0.0574134 0.0
0.0961486 0.059368 0.0
0.0941315 0.0609772 0.0
0.0786808 0.0803829 0.0
0.0801958 0.0789264 0.0
0.0815138 0.0775125 0.0
0.0828507 0.076673 0.0
0.0831705 0.0749037 0.0
0.084489 0.0735851 0.0
0.0885385 0.0688022 0.0
0.0873354 0.0697287 0.0
0.0858075 0.0722666 0.0
0.0869316 0.0714586 0.0
0.0888672 0.0670175 0.0
0.0674813 0.0980833 0.0
0.0772055 0.0798988 0.0
0.0760598 0.0812872 0.0
0.0749142 0.0826756 0.0
0.066 0.1 0.0
0.0739413 0.0841338 0.0
0.0726229 0.0854524 0.0
0.0702163 0.0891746 0.0
0.0688407 0.0907283 0.0
0.0708686 0.0874301 0.0
0.0684332 0.0944112 0.0
0.0669627 0.0961666 0.0
0.0679109 0.0925482 0.0
0.1 0.052 0.0
0.098096 0.0539582 0.0
0.0961921 0.0539164 0.0
0.0924636 0.0626069 0.0
0.0906412 0.0636801 0.0
0.0885733 0.0650566 0.0
0.0942885 0.0554974 0.0
0.0942885 0.0571202 0.0
0.0942228 0.0590519 0.0
0.0921773 0.0606366 0.0
0.0783511 0.0785104 0.0
0.0794968 0.077122 0.0
0.0806424 0.0757336 0.0
0.081788 0.0743452 0.0
0.0829337 0.0729568 0.0
0.0840793 0.0715684 0.0
0.0866876 0.0682858 0.0
0.085577 0.0702953 0.0
0.0870694 0.0665359 0.0
0.0769018 0.0781402 0.0
0.0656001 0.0980834 0.0
0.0756392 0.0795243 0.0
0.0743765 0.0809085 0.0
0.0731138 0.0822926 0.0
0.064 0.1 0.0
0.0714303 0.0842078 0.0
0.0701562 0.0856849 0.0
0.0686917 0.0886242 0.0
0.0674007 0.0907283 0.0
0.0681575 0.0867871 0.0
0.066444 0.0942499 0.0
0.0652002 0.0961669 0.0
0.0659253 0.0923332 0.0
0.1 0.05 0.0
0.0979958 0.0518664 0.0
0.0959824 0.0519564 0.0
0.0942881 0.0538746 0.0
0.0979958 0.05 0.0
0.0906412 0.06227 0.0
0.086725 0.0645805 0.0
0.0887043 0.0634964 0.0
0.0923866 0.05533 0.0
0.0922985 0.0572391 0.0
0.0921768 0.0591394 0.0
0.0903023 0.0603098 0.0
0.0768323 0.07639 0.0
0.078212 0.0750101 0.0
0.0795918 0.0736302 0.0
0.0809715 0.0722502 0.0
0.0838187 0.0695998 0.0
0.0823512 0.0708703 0.0
0.083461 0.0683418 0.0
0.0848367 0.0677694 0.0
0.0852716 0.0660543 0.0
0.0754526 0.0777699 0.0
0.0744351 0.0764462 0.0
0.0636289 0.0981258 0.0
0.0740729 0.0791498 0.0
0.0726931 0.0805298 0.0
0.0713134 0.0819097 0.0
0.062 0.1 0.0
0.0694438 0.0839397 0.0
0.0676232 0.0849501 0.0
0.0654237 0.0904794 0.0
0.0666664 0.0869725 0.0
0.0669 0.0889427 0.0
0.0648004 0.0942503 0.0
0.0632578 0.0962516 0.0
0.0640404 0.0925026 0.0
0.0746095 0.0749312 0.0
0.1 0.048 0.0
0.0979959 0.0481336 0.0
0.0923861 0.0538329 0.0
0.0959915 0.05 0.0
0.0939873 0.05 0.0
0.0939736 0.0519346 0.0
0.0959918 0.0482672 0.0
0.0905612 0.0537928 0.0
0.0888353 0.0619362 0.0
0.0853139 0.0647213 0.0
0.0870294 0.0627847 0.0
0.0905618 0.0551694 0.0
0.0904526 0.0570567 0.0
0.0903017 0.0589331 0.0
0.0884273 0.059983 0.0
0.0761309 0.0737488 0.0
0.0776524 0.0725663 0.0
0.0791738 0.0713838 0.0
0.0806952 0.0702013 0.0
0.0820853 0.0689142 0.0
0.0823252 0.0675468 0.0
0.0839028 0.0648622 0.0
0.0834738 0.0665813 0.0
0.073183 0.0776952 0.0
0.0726157 0.0759229 0.0
0.0635665 0.0906897 0.0
0.0616341 0.0980522 0.0
0.0749165 0.0726375 0.0
0.0735414 0.0736722 0.0
0.071931 0.0789442 0.0
0.0706789 0.0801931 0.0
0.0697102 0.0812062 0.0
0.0687414 0.0822192 0.0
0.06 0.1 0.0
0.067089 0.083113 0.0
0.0658988 0.0853714 0.0
0.0649265 0.0886422 0.0
0.0651753 0.0871579 0.0
0.0628867 0.0943773 0.0
0.0612682 0.0961045 0.0
0.0625156 0.0925031 0.0
0.0721663 0.0747069 0.0
0.1 0.046 0.0
0.0980962 0.0460418 0.0
0.0961923 0.0460836 0.0
0.0919863 0.051913 0.0
0.0939877 0.0484008 0.0
0.092005 0.048533 0.0
0.0920045 0.05 0.0
0.0942885 0.0461254 0.0
0.0900609 0.0518921 0.0
0.0887362 0.0537528 0.0
0.0867909 0.0612205 0.0
0.0852235 0.0623371 0.0
0.0845632 0.0635996 0.0
0.0886714 0.0553135 0.0
0.0886067 0.0568743 0.0
0.088517 0.0584286 0.0
0.0865523 0.0596562 0.0
0.0762917 0.0716028 0.0
0.0776668 0.0705681 0.0
0.0790419 0.0695335 0.0
0.0803834 0.068241 0.0
0.0811895 0.0667518 0.0
0.0822215 0.0643255 0.0
0.0713305 0.0772008 0.0
0.0707911 0.0757416 0.0
0.0621566 0.0906903 0.0
0.063097 0.0888932 0.0
0.0597598 0.0980521 0.0
0.0730925 0.0719829 0.0
0.0745246 0.0709438 0.0
0.0716605 0.073022 0.0
0.0700452 0.0784787 0.0
0.0690486 0.0795044 0.0
0.0680519 0.0805301 0.0
[...]
POINT_DATA 3393
VECTORS u float
0.117185 0.164421 0.0
0.11496 0.162137 0.0
0.114899 0.161083 0.0
0.112614 0.157743 0.0
0.112737 0.159851 0.0
0.111561 0.157657 0.0
0.112653 0.158447 0.0
0.110373 0.155196 0.0
0.110333 0.154402 0.0
0.110464 0.156777 0.0
0.110516 0.157561 0.0
0.108202 0.153877 0.0
0.108162 0.153177 0.0
0.108124 0.152474 0.0
0.108088 0.151769 0.0
0.108055 0.15106 0.0
0.108246 0.154573 0.0
0.108297 0.155263 0.0
0.105969 0.151483 0.0
0.105779 0.147719 0.0
0.105928 0.150739 0.0
0.105889 0.149991 0.0
0.105285 0.14848 0.0
0.105531 0.148101 0.0
0.106016 0.15222 0.0
0.106076 0.15295 0.0
0.103696 0.148331 0.0
0.103736 0.1491 0.0
0.103504 0.144378 0.0
0.10354 0.14518 0.0
0.103659 0.147554 0.0
0.103619 0.146771 0.0
0.103579 0.14598 0.0
0.101228 0.141032 0.0
0.0989559 0.137682 0.0
0.103783 0.149864 0.0
0.103847 0.150624 0.0
0.101098 0.146397 0.0
0.1004 0.143559 0.0
0.100637 0.144504 0.0
0.100861 0.145453 0.0
0.101263 0.141789 0.0
0.0996745 0.140662 0.0
0.100161 0.142604 0.0
0.0999185 0.141638 0.0
0.0966745 0.134314 0.0
0.096528 0.134912 0.0
0.0971172 0.136352 0.0
0.101343 0.14734 0.0
0.101609 0.148278 0.0
0.0992638 0.144476 0.0
0.0986818 0.143103 0.0
0.0980481 0.140276 0.0
0.0982658 0.141223 0.0
0.096989 0.140157 0.0
0.0973493 0.137355 0.0
0.0975854 0.138347 0.0
0.0978202 0.139323 0.0
0.0943988 0.130926 0.0
0.0944145 0.131742 0.0
0.0944536 0.132561 0.0
0.0945077 0.133359 0.0
0.0992944 0.14519 0.0
0.0993493 0.14591 0.0
0.0970023 0.141495 0.0
0.0970078 0.142163 0.0
0.0947732 0.138369 0.0
0.0947705 0.137698 0.0
0.0957818 0.137256 0.0
0.0959813 0.138167 0.0
0.0947622 0.137023 0.0
0.0945668 0.13414 0.0
0.0946277 0.134897 0.0
0.0935181 0.134252 0.0
0.0921093 0.127506 0.0
0.0921235 0.128319 0.0
0.0921531 0.129145 0.0
0.0922064 0.129944 0.0
0.0922736 0.130719 0.0
0.0970203 0.142839 0.0
0.0970605 0.14352 0.0
0.0925602 0.135439 0.0
0.0947532 0.139041 0.0
0.0950832 0.14013 0.0
0.0925242 0.136061 0.0
0.0925736 0.134817 0.0
0.0925687 0.134186 0.0
0.0937135 0.135126 0.0
0.0923449 0.13147 0.0
0.0924152 0.132189 0.0
0.0908558 0.131035 0.0
0.0898471 0.124051 0.0
0.0892203 0.124268 0.0
0.0894816 0.127562 0.0
0.0892617 0.125419 0.0
0.0893254 0.126179 0.0
0.0893896 0.126784 0.0
0.0875948 0.120546 0.0
0.0948919 0.140609 0.0
0.0947295 0.141106 0.0
0.089763 0.13216 0.0
0.0902683 0.132217 0.0
0.0924804 0.136689 0.0
0.0924269 0.13733 0.0
0.0903834 0.13373 0.0
0.0902062 0.131521 0.0
0.0903991 0.130978 0.0
0.0895796 0.128382 0.0
0.0889079 0.12812 0.0
0.0882275 0.12781 0.0
0.0853722 0.116974 0.0
0.0867404 0.124614 0.0
0.0869094 0.120847 0.0
0.0863379 0.121116 0.0
0.0866103 0.123685 0.0
0.086393 0.122019 0.0
0.0864863 0.122877 0.0
0.0847418 0.117492 0.0
0.0832054 0.113327 0.0
0.0880523 0.130398 0.0
0.0923644 0.137986 0.0
0.0923435 0.138672 0.0
0.087639 0.129103 0.0
0.0878609 0.128821 0.0
0.0895902 0.13335 0.0
0.0885397 0.132646 0.0
0.086868 0.1294 0.0
0.0811015 0.109596 0.0
0.0880062 0.1285 0.0
0.0881352 0.128164 0.0
0.0863996 0.124667 0.0
0.0860508 0.12468 0.0
0.0850296 0.123842 0.0
0.0838712 0.121255 0.0
0.0824479 0.113917 0.0
0.0839046 0.120887 0.0
0.0839885 0.117766 0.0
0.0834788 0.11807 0.0
0.0837139 0.119843 0.0
0.0835735 0.118985 0.0
0.0819088 0.11458 0.0
0.0803485 0.110425 0.0
0.0856921 0.126923 0.0
0.0893728 0.13465 0.0
0.0857227 0.125642 0.0
0.0899087 0.136252 0.0
0.0855497 0.126079 0.0
0.0834013 0.124206 0.0
0.0860407 0.128993 0.0
0.0865246 0.130607 0.0
0.0840763 0.126022 0.0
0.0791015 0.10578 0.0
0.0781856 0.106829 0.0
0.083997 0.122947 0.0
0.0838524 0.121583 0.0
0.0835123 0.121556 0.0
0.0821594 0.120242 0.0
0.0816579 0.118584 0.0
0.0795533 0.111034 0.0
0.0811076 0.117272 0.0
0.0811011 0.114807 0.0
0.0806569 0.115108 0.0
0.0809186 0.116578 0.0
0.0807761 0.115848 0.0
0.0791128 0.111797 0.0
0.0775884 0.107904 0.0
0.0832735 0.123345 0.0
0.0869005 0.132128 0.0
0.0834574 0.122765 0.0
0.087383 0.133834 0.0
0.0818636 0.120962 0.0
0.0810231 0.120567 0.0
0.0811011 0.121447 0.0
0.0838232 0.126586 0.0
0.0840681 0.12801 0.0
0.081271 0.122596 0.0
0.0772136 0.101876 0.0
0.0762769 0.103324 0.0
0.0753238 0.104263 0.0
0.0754745 0.0978769 0.0
0.0810413 0.119023 0.0
0.0810896 0.118273 0.0
0.080299 0.117572 0.0
0.0794883 0.116766 0.0
0.0794819 0.115632 0.0
0.0792818 0.115792 0.0
0.0767052 0.108297 0.0
0.0772649 0.112718 0.0
0.0790617 0.114641 0.0
0.0782609 0.111949 0.0
0.07789 0.112243 0.0
0.0781135 0.113034 0.0
0.0763658 0.109123 0.0
0.0748508 0.105438 0.0
0.0844942 0.129816 0.0
0.0801209 0.118016 0.0
0.0847669 0.131439 0.0
0.0791799 0.116998 0.0
0.0793931 0.117689 0.0
0.0786974 0.117096 0.0
0.0787807 0.117762 0.0
0.0788002 0.118664 0.0
0.0813171 0.123949 0.0
0.0817966 0.125806 0.0
0.0788869 0.119855 0.0
0.0744476 0.0996249 0.0
0.0735162 0.101071 0.0
0.0725251 0.101869 0.0
0.0739078 0.0937974 0.0
0.0725565 0.089634 0.0
0.0726011 0.0957234 0.0
0.0781544 0.115104 0.0
0.07839 0.114944 0.0
0.0779132 0.114531 0.0
0.0769681 0.112987 0.0
0.0770775 0.112941 0.0
0.0739149 0.105684 0.0
0.0753167 0.110516 0.0
0.0750075 0.10981 0.0
0.0755157 0.109222 0.0
0.0752829 0.109558 0.0
0.0737104 0.106577 0.0
0.0721714 0.103092 0.0
0.0818559 0.127305 0.0
0.0765777 0.113104 0.0
0.082049 0.129094 0.0
0.0773917 0.11455 0.0
0.0769673 0.114356 0.0
0.0765245 0.114186 0.0
0.0763776 0.115923 0.0
0.0765468 0.114931 0.0
0.0792803 0.121825 0.0
0.0792685 0.123189 0.0
0.0768989 0.117884 0.0
0.0714519 0.0854054 0.0
0.071756 0.0975699 0.0
0.0708215 0.0989841 0.0
0.0697929 0.0995951 0.0
0.0710785 0.0918735 0.0
0.0697677 0.0879524 0.0
0.0698183 0.0937728 0.0
0.0753508 0.111206 0.0
0.0756043 0.111476 0.0
0.0758024 0.111672 0.0
0.0747692 0.110192 0.0
0.0739991 0.109155 0.0
0.0723288 0.107049 0.0
0.0712516 0.103228 0.0
0.0728005 0.107397 0.0
0.0711869 0.104177 0.0
0.0727424 0.106913 0.0
0.072906 0.106643 0.0
0.0696087 0.100896 0.0
0.0793352 0.12505 0.0
0.0734154 0.108484 0.0
0.074279 0.109847 0.0
0.0792217 0.126815 0.0
0.0744821 0.110417 0.0
0.0746065 0.111012 0.0
0.0746977 0.114042 0.0
0.0743782 0.111247 0.0
0.0741677 0.112126 0.0
0.0768444 0.119112 0.0
0.0768553 0.121039 0.0
0.074376 0.115072 0.0
0.0705712 0.0811409 0.0
0.0687318 0.0841776 0.0
0.0691357 0.0956653 0.0
0.0680464 0.0965176 0.0
0.0672099 0.0974998 0.0
0.0661298 0.0830515 0.0
0.0670877 0.0864225 0.0
0.0683483 0.0901332 0.0
0.067119 0.0919755 0.0
0.073146 0.108092 0.0
0.0729292 0.10788 0.0
0.0725318 0.107421 0.0
0.0727546 0.107699 0.0
0.0709855 0.105523 0.0
0.0706055 0.104961 0.0
0.0688668 0.101348 0.0
0.0687308 0.101813 0.0
0.0702574 0.104286 0.0
0.0703506 0.104104 0.0
0.0671612 0.0987973 0.0
0.0765247 0.122633 0.0
0.0713823 0.105573 0.0
0.0717563 0.106056 0.0
0.0720432 0.106547 0.0
0.076276 0.12465 0.0
0.0724255 0.107399 0.0
0.0722844 0.107608 0.0
0.0726673 0.11036 0.0
0.0722517 0.111186 0.0
0.0720423 0.108374 0.0
0.0745813 0.117071 0.0
0.0740912 0.118498 0.0
0.0724808 0.11315 0.0
0.0699051 0.0768493 0.0
0.0679015 0.0803775 0.0
0.065354 0.0796653 0.0
0.06658 0.0938823 0.0
0.0655354 0.0945855 0.0
0.0647109 0.0954866 0.0
0.0636261 0.0820054 0.0
0.0644991 0.0850119 0.0
0.0657005 0.0885296 0.0
0.0644927 0.090286 0.0
0.0709169 0.105064 0.0
0.0703778 0.104547 0.0
0.0697724 0.103964 0.0
0.0691238 0.103304 0.0
0.0684744 0.102544 0.0
0.0678313 0.101689 0.0
0.0663903 0.0991038 0.0
0.0676745 0.101206 0.0
0.0647756 0.0967353 0.0
0.0693438 0.102776 0.0
0.0738395 0.120556 0.0
0.0696981 0.103037 0.0
0.069948 0.103293 0.0
0.0700952 0.103555 0.0
0.0732166 0.122605 0.0
0.0701263 0.104106 0.0
0.0699919 0.104663 0.0
0.0705624 0.10746 0.0
0.0705612 0.109363 0.0
0.0687104 0.103768 0.0
0.0718819 0.114419 0.0
0.0716661 0.116524 0.0
0.0698442 0.110397 0.0
0.0695457 0.0725428 0.0
0.0670696 0.0760962 0.0
0.0644905 0.0758408 0.0
0.0629131 0.0789851 0.0
0.0668809 0.072361 0.0
0.0641672 0.0922316 0.0
0.0622774 0.0934981 0.0
0.0632216 0.0930792 0.0
0.0611527 0.081006 0.0
0.0621278 0.084375 0.0
0.0633258 0.087663 0.0
0.0620413 0.088748 0.0
0.0674269 0.100341 0.0
0.0669669 0.100189 0.0
0.0664607 0.0999503 0.0
0.0659483 0.09959 0.0
0.0652214 0.0986635 0.0
0.0654586 0.0990801 0.0
0.0634017 0.0965849 0.0
0.0639887 0.0969076 0.0
0.062444 0.0947069 0.0
0.0677891 0.100394 0.0
0.0656259 0.0972867 0.0
0.0709758 0.118586 0.0
0.0680378 0.100425 0.0
0.0681663 0.100454 0.0
0.0681618 0.100523 0.0
0.0700357 0.120721 0.0
0.0680261 0.100987 0.0
0.0669145 0.100127 0.0
0.0680196 0.106559 0.0
0.0672298 0.102156 0.0
0.0687756 0.105709 0.0
0.0697096 0.112553 0.0
0.0689853 0.11464 0.0
0.0675608 0.108555 0.0
0.0641233 0.0955424 0.0
0.0696122 0.0682922 0.0
0.0668491 0.0686406 0.0
0.060543 0.0783255 0.0
0.064246 0.0721068 0.0
0.061701 0.0717683 0.0
0.0619592 0.0753227 0.0
0.0642298 0.0687879 0.0
0.0583128 0.0776614 0.0
0.0618365 0.0906287 0.0
0.0609887 0.0927556 0.0
0.0607014 0.0909197 0.0
0.0588816 0.0800541 0.0
0.0597971 0.083266 0.0
0.0609446 0.0864136 0.0
0.0596382 0.0872219 0.0
0.0639169 0.0960122 0.0
0.0636848 0.09635 0.0
0.0634521 0.0965458 0.0
0.0632494 0.0965758 0.0
0.0628681 0.0961482 0.0
0.0614182 0.0944882 0.0
0.0597581 0.0919423 0.0
0.0613198 0.0941078 0.0
0.0659223 0.09724 0.0
0.0636831 0.0940834 0.0
0.06587 0.104806 0.0
0.0678915 0.116534 0.0
0.0617227 0.0930282 0.0
0.0619073 0.0924649 0.0
0.0661061 0.0971892 0.0
0.0661681 0.0971724 0.0
0.0661724 0.0972593 0.0
0.0660563 0.0974172 0.0
0.0667508 0.119045 0.0
0.0651516 0.0965082 0.0
0.0654124 0.0985539 0.0
0.0663128 0.102804 0.0
0.0657109 0.100584 0.0
0.0671919 0.110762 0.0
0.066002 0.112437 0.0
0.0655686 0.106943 0.0
0.0620625 0.0918645 0.0
0.0699043 0.0640913 0.0
0.0673077 0.0644597 0.0
0.0648171 0.0646488 0.0
0.0594984 0.0747818 0.0
0.061686 0.0688267 0.0
0.059228 0.0687704 0.0
0.0592401 0.0713797 0.0
0.0624165 0.0646955 0.0
0.0571497 0.0742138 0.0
0.056087 0.0769891 0.0
0.0589282 0.0883199 0.0
0.0583628 0.0890999 0.0
0.0590141 0.0905756 0.0
0.0567091 0.0795942 0.0
0.0575423 0.0821771 0.0
0.0584934 0.0847162 0.0
0.0572668 0.0857113 0.0
0.0615088 0.093487 0.0
0.0612886 0.0938178 0.0
0.0610875 0.0940078 0.0
0.0605829 0.0936746 0.0
0.0594583 0.0924147 0.0
0.0575206 0.0899423 0.0
0.0639894 0.0939453 0.0
0.0621292 0.0912084 0.0
0.064097 0.1033 0.0
0.0642812 0.101126 0.0
0.0649718 0.114936 0.0
0.0596295 0.0897199 0.0
0.0594047 0.0903969 0.0
0.0598119 0.0889648 0.0
0.0641482 0.0938407 0.0
0.0642013 0.0938425 0.0
0.0641709 0.093922 0.0
0.0634209 0.093053 0.0
0.0631361 0.0933265 0.0
0.063376 0.117568 0.0
0.063081 0.0953887 0.0
0.0627386 0.0937012 0.0
0.062789 0.0974635 0.0
0.064313 0.108422 0.0
0.0634146 0.110929 0.0
0.0627839 0.104478 0.0
0.0599385 0.0881437 0.0
0.0704052 0.0599545 0.0
0.0678096 0.0607702 0.0
0.0653139 0.0613522 0.0
0.0628938 0.0617528 0.0
0.0568924 0.0709486 0.0
0.0600732 0.0646389 0.0
0.0578598 0.0645054 0.0
0.0568816 0.0686399 0.0
0.0605326 0.0620078 0.0
0.054589 0.0710203 0.0
0.0548162 0.0736207 0.0
0.0538846 0.0762904 0.0
0.0565904 0.0866574 0.0
0.0556726 0.0877126 0.0
0.0560674 0.0873101 0.0
0.0550225 0.0799869 0.0
0.0560553 0.0829017 0.0
0.0527642 0.0787467 0.0
0.0549289 0.0842135 0.0
0.0574078 0.0901308 0.0
0.0595885 0.091424 0.0
0.0589454 0.0913448 0.0
0.0583379 0.0910995 0.0
0.0572987 0.0901079 0.0
0.0553411 0.0878543 0.0
0.061283 0.0904002 0.0
0.062095 0.0905567 0.0
0.0599677 0.0873182 0.0
0.0627533 0.100227 0.0
0.0613887 0.100739 0.0
0.0614805 0.0971701 0.0
0.0618453 0.113511 0.0
0.0574718 0.0861197 0.0
0.0574335 0.0885007 0.0
0.0572634 0.0870647 0.0
0.0576253 0.0850962 0.0
0.0624165 0.0907507 0.0
0.0616265 0.0894101 0.0
0.0606161 0.0882438 0.0
0.0599159 0.11636 0.0
0.0612984 0.0938437 0.0
0.0605264 0.090568 0.0
0.0601105 0.0935144 0.0
0.0620256 0.107008 0.0
0.060504 0.109567 0.0
0.0607662 0.103154 0.0
0.0577033 0.0840566 0.0
0.0711734 0.0559169 0.0
0.072149 0.0519954 0.0
0.07614 0.0410773 0.0
0.0746572 0.0445599 0.0
0.0733275 0.0482059 0.0
0.0685805 0.0569676 0.0
0.0660753 0.0577414 0.0
0.0636385 0.0583049 0.0
0.0612525 0.0586971 0.0
0.0776995 0.0377534 0.0
0.0793342 0.0345935 0.0
0.0809781 0.0315927 0.0
0.082623 0.0287405 0.0
0.0842164 0.0260252 0.0
0.0857435 0.0234441 0.0
0.0545571 0.0684352 0.0
0.0582983 0.0621482 0.0
0.0556479 0.0642917 0.0
0.0589944 0.0589423 0.0
0.0528551 0.0707357 0.0
0.0525009 0.0729897 0.0
0.0517352 0.0755146 0.0
0.0522598 0.0682061 0.0
0.0535422 0.0840368 0.0
0.0534965 0.0857275 0.0
0.0538637 0.0854979 0.0
0.049681 0.0747684 0.0
0.0537527 0.0815351 0.0
0.0505579 0.0775318 0.0
0.0519538 0.0813864 0.0
0.0552374 0.0878883 0.0
0.0568253 0.0885582 0.0
0.0561602 0.0884648 0.0
0.0551891 0.0876904 0.0
0.0531841 0.0856796 0.0
0.0513729 0.0836365 0.0
0.0598828 0.0885625 0.0
0.0602856 0.0871819 0.0
0.0603733 0.0873691 0.0
0.0582049 0.0839669 0.0
0.0600877 0.0970326 0.0
0.0590205 0.0993603 0.0
0.0588344 0.093336 0.0
0.0587997 0.112361 0.0
0.0546625 0.0812887 0.0
0.0546699 0.0855885 0.0
0.0528676 0.0839305 0.0
0.0550503 0.0833776 0.0
0.0548678 0.0845808 0.0
0.0552962 0.0807889 0.0
0.0584688 0.0868193 0.0
0.0597615 0.0860754 0.0
0.0583939 0.0847779 0.0
0.0589282 0.0848818 0.0
0.0564032 0.11538 0.0
0.0588267 0.0891884 0.0
0.0575933 0.0896499 0.0
0.0593019 0.105714 0.0
0.0578238 0.108483 0.0
0.0581948 0.101931 0.0
0.055882 0.0805541 0.0
0.0695532 0.0532604 0.0
0.0707154 0.0498409 0.0
0.0752138 0.0398689 0.0
0.0736704 0.0429518 0.0
0.0720212 0.0465279 0.0
0.0669945 0.0545682 0.0
0.0645157 0.0554568 0.0
0.0620857 0.0561445 0.0
0.0597843 0.0566604 0.0
0.0769804 0.0366991 0.0
0.0786273 0.0337727 0.0
0.0803873 0.0309294 0.0
0.0819871 0.0282966 0.0
0.0836488 0.0256135 0.0
0.0872326 0.0209801 0.0
0.0856471 0.0226618 0.0
0.0885941 0.0186266 0.0
0.0549849 0.0622999 0.0
0.0534699 0.0640444 0.0
0.0513579 0.0637864 0.0
0.0566004 0.0601246 0.0
0.0575039 0.0570947 0.0
0.051149 0.0704184 0.0
0.0502464 0.0723018 0.0
0.0506051 0.065865 0.0
0.0500131 0.0679149 0.0
0.0482928 0.0728869 0.0
0.0476717 0.0739595 0.0
0.0512766 0.0822662 0.0
0.0516902 0.0836082 0.0
0.0483932 0.0762829 0.0
0.0501225 0.0788226 0.0
0.0498903 0.0800253 0.0
0.0492554 0.0634978 0.0
0.0531144 0.0855301 0.0
0.0531135 0.0850925 0.0
0.0510273 0.0833754 0.0
0.0495903 0.0816142 0.0
0.057765 0.082707 0.0
0.0556158 0.0793376 0.0
0.0578285 0.0957182 0.0
0.0571942 0.0983402 0.0
0.056686 0.0920942 0.0
0.0555543 0.111418 0.0
0.0526565 0.077411 0.0
0.0529036 0.0799907 0.0
0.0510732 0.0822817 0.0
0.0524388 0.0826846 0.0
0.0515885 0.0796638 0.0
0.0533532 0.0771077 0.0
0.0563249 0.084213 0.0
0.0562155 0.0823867 0.0
0.0571542 0.0815241 0.0
0.0561185 0.0803646 0.0
0.0528344 0.114606 0.0
0.0563635 0.0860657 0.0
0.0555441 0.0884726 0.0
0.0569425 0.104705 0.0
0.0548276 0.107618 0.0
0.0561164 0.100992 0.0
0.0532596 0.0759561 0.0
0.0681691 0.0511424 0.0
0.074614 0.0384963 0.0
0.0694279 0.0481358 0.0
0.0727342 0.0416475 0.0
0.0711788 0.0447414 0.0
0.065672 0.0521684 0.0
0.0632115 0.0529841 0.0
0.0608921 0.0536077 0.0
0.0585817 0.0541352 0.0
0.0897949 0.0163907 0.0
0.0762484 0.0356502 0.0
0.0781012 0.0328724 0.0
0.0796903 0.030354 0.0
0.0814716 0.0276064 0.0
0.0835641 0.024619 0.0
0.0855308 0.0217291 0.0
0.0870904 0.0201729 0.0
0.0885183 0.0176706 0.0
0.0543755 0.0603839 0.0
0.0521363 0.0605845 0.0
0.0552334 0.0574384 0.0
0.056281 0.0545657 0.0
0.0478281 0.068893 0.0
0.0469479 0.0704508 0.0
0.0480104 0.0648509 0.0
0.0468145 0.0667356 0.0
0.0461455 0.0719266 0.0
0.0459371 0.0740286 0.0
0.0490384 0.0804081 0.0
0.0472559 0.077291 0.0
0.047201 0.0632361 0.0
0.04866 0.0613078 0.0
0.0503467 0.0820216 0.0
0.0489396 0.0808559 0.0
0.0475295 0.079491 0.0
0.0466301 0.078249 0.0
0.0507294 0.0774586 0.0
0.0533763 0.075419 0.0
0.0552046 0.0781422 0.0
0.0547005 0.0973849 0.0
0.0558574 0.0946865 0.0
0.0548616 0.0911206 0.0
0.0522957 0.110551 0.0
0.0548041 0.0790792 0.0
0.0503063 0.0792986 0.0
0.0505126 0.0735134 0.0
0.0497349 0.0738734 0.0
0.0491465 0.07439 0.0
0.0485651 0.0749305 0.0
0.048255 0.0790413 0.0
0.0490128 0.0792025 0.0
0.0480015 0.0755255 0.0
0.0507752 0.0725115 0.0
0.0542938 0.0818262 0.0
0.0531065 0.07841 0.0
0.0544044 0.0770036 0.0
0.0532896 0.0757451 0.0
0.0492749 0.114408 0.0
0.0492599 0.11027 0.0
0.0533612 0.0842437 0.0
0.0530648 0.0869759 0.0
0.0541371 0.103906 0.0
0.0517592 0.10659 0.0
0.0526923 0.0992886 0.0
0.0508606 0.0718551 0.0
0.0668739 0.049453 0.0
0.0738598 0.0372667 0.0
0.0722477 0.0400296 0.0
0.0687331 0.0461314 0.0
0.0702678 0.0431377 0.0
0.0643576 0.0505383 0.0
0.0627953 0.0504653 0.0
0.0583685 0.052059 0.0
0.0600895 0.0515845 0.0
0.0934492 0.00791773 0.0
0.090958 0.0141892 0.0
0.092781 0.00995265 0.0
0.0919042 0.0120251 0.0
0.0757894 0.0345957 0.0
0.0734683 0.0361275 0.0
0.0773456 0.0322198 0.0
0.0792383 0.0294337 0.0
0.0814169 0.0264331 0.0
0.0834686 0.0235073 0.0
0.0853812 0.020653 0.0
0.0869126 0.0192065 0.0
0.0883627 0.0165684 0.0
0.0502326 0.0593424 0.0
0.0529639 0.0577232 0.0
0.0539758 0.0549322 0.0
0.056651 0.0524812 0.0
0.0457406 0.0683125 0.0
0.0448309 0.0696789 0.0
0.0458763 0.0646563 0.0
0.0446917 0.066334 0.0
0.0440754 0.0709189 0.0
0.0440365 0.0728283 0.0
0.0448214 0.0749687 0.0
0.0458322 0.0769513 0.0
0.0466208 0.0612473 0.0
0.0452207 0.0629916 0.0
0.0481153 0.0594226 0.0
0.0468702 0.0781844 0.0
0.0455314 0.0770934 0.0
0.044748 0.0762149 0.0
0.0518422 0.0728537 0.0
0.0524735 0.0736648 0.0
0.0519056 0.0955658 0.0
0.0538449 0.0938626 0.0
0.0529835 0.0903386 0.0
0.0491084 0.106297 0.0
0.0518179 0.0749988 0.0
0.046846 0.075665 0.0
0.0502958 0.0703098 0.0
0.0476667 0.068831 0.0
0.0473086 0.0697112 0.0
0.046536 0.0701051 0.0
0.0459715 0.0706563 0.0
0.0454829 0.0713017 0.0
0.0460289 0.075708 0.0
0.0445148 0.0716382 0.0
0.0478773 0.068182 0.0
0.0444395 0.0748597 0.0
0.0524013 0.0808486 0.0
0.0513883 0.0774072 0.0
0.0502515 0.074021 0.0
0.0515591 0.0724711 0.0
0.0503783 0.0716472 0.0
0.0457578 0.114454 0.0
0.0458369 0.110315 0.0
0.0457648 0.106304 0.0
0.0512986 0.0834077 0.0
0.0508445 0.0863185 0.0
0.0512046 0.102691 0.0
0.048874 0.102409 0.0
0.0506408 0.0988799 0.0
0.0476041 0.0668968 0.0
0.0663112 0.0472955 0.0
0.0714725 0.0386668 0.0
0.06989 0.0413457 0.0
0.0678167 0.0443992 0.0
0.0639856 0.0482526 0.0
0.061709 0.049078 0.0
0.0594311 0.0498119 0.0
0.0939785 0.00590011 0.0
0.0943685 0.00391278 0.0
0.0921714 0.00914014 0.0
0.0926709 0.00696953 0.0
0.0895385 0.0143196 0.0
0.0915225 0.0110412 0.0
0.071179 0.037489 0.0
0.0749808 0.0339118 0.0
0.0727004 0.0350345 0.0
0.0769572 0.0311186 0.0
0.0788728 0.0286008 0.0
0.0806996 0.0261334 0.0
0.0824388 0.0237136 0.0
0.0840578 0.0213395 0.0
0.0855768 0.0189996 0.0
0.0881994 0.0153324 0.0
0.0510651 0.0566459 0.0
0.0544034 0.0530109 0.0
0.0525402 0.0540205 0.0
0.0571674 0.0504875 0.0
0.0436751 0.0677141 0.0
0.0428037 0.0688513 0.0
0.0437958 0.06447 0.0
0.0426598 0.0659504 0.0
0.0421215 0.0698122 0.0
0.042179 0.071525 0.0
0.0432602 0.0739676 0.0
0.0429603 0.0739356 0.0
0.0418011 0.0719108 0.0
0.0460432 0.0595537 0.0
0.0435112 0.0620908 0.0
0.0489591 0.0568585 0.0
0.0435478 0.07438 0.0
0.0427456 0.0736895 0.0
0.0497782 0.0836177 0.0
0.049641 0.0693766 0.0
0.0500882 0.0952086 0.0
0.0511047 0.0918436 0.0
0.0502822 0.0881367 0.0
0.0460644 0.102407 0.0
0.0489815 0.0706951 0.0
0.0437704 0.0718422 0.0
0.0472931 0.0660106 0.0
0.0440511 0.0649942 0.0
0.0440633 0.0639525 0.0
0.0436028 0.0655148 0.0
0.0429516 0.0659052 0.0
0.0425711 0.066523 0.0
0.0418951 0.0668734 0.0
0.0426919 0.0717024 0.0
0.041197 0.0671608 0.0
0.0442828 0.0633679 0.0
0.041644 0.071153 0.0
0.0496327 0.0751393 0.0
0.0504089 0.0800289 0.0
0.048727 0.076213 0.0
0.0485954 0.071785 0.0
0.0486811 0.0683715 0.0
0.0478234 0.0677388 0.0
0.0422871 0.114754 0.0
0.0428138 0.110621 0.0
0.0431311 0.106615 0.0
0.0432792 0.102705 0.0
0.0486723 0.0808655 0.0
0.0482735 0.0842012 0.0
0.0485879 0.0986109 0.0
0.045921 0.098604 0.0
0.0482701 0.0949501 0.0
0.0442623 0.0626759 0.0
0.0946259 8.06118e-34 0.0
0.0654659 0.0454438 0.0
0.0691487 0.039869 0.0
0.0675963 0.0424671 0.0
0.0631466 0.0463597 0.0
0.0608381 0.0471613 0.0
0.0588742 0.0482376 0.0
0.0689654 0.038696 0.0
0.0946113 0.00196641 0.0
0.0931435 0.00499086 0.0
0.0936571 0.00273433 0.0
0.0917991 0.00584713 0.0
0.0909826 0.00983343 0.0
0.0914843 0.00815655 0.0
0.0892607 0.0130845 0.0
0.089771 0.0110773 0.0
0.0704397 0.036309 0.0
0.0746732 0.0326567 0.0
0.0724746 0.0340473 0.0
0.077096 0.0298647 0.0