# vtk DataFile Version 2.0
Vtkoutput example
ASCII

DATASET UNSTRUCTURED_GRID
POINTS 3357 float
0 0 0.0
0 0.002 0.0
0.002 0 0.0
0 0.004 0.0
0.002 0.003 0.0
0.00266667 0.00133333 0.0
0.006 0 0.0
0.004 0 0.0
0.008 0 0.0
0 0.006 0.0
0.01 0 0.0
0.0016 0.0048 0.0
0.00366667 0.00316667 0.0
0.00666667 0.00166667 0.0
0.0045 0.0015 0.0
0.00857143 0.00142857 0.0
0.00133333 0.00666667 0.0
0 0.008 0.0
0.0105 0.0015 0.0
0.012 0 0.0
0.00285714 0.00714286 0.0
0.004 0.005 0.0
0.0075 0.003 0.0
0.00533333 0.00333333 0.0
0.00933333 0.00311111 0.0
0.0112 0.0028 0.0
0.00142857 0.00857143 0.0
0 0.01 0.0
0.014 0 0.0
0.016 0 0.0
0.0130909 0.00254545 0.0
0.0116364 0.00436364 0.0
0.0045 0.0075 0.0
0.003 0.009 0.0
0.006 0.006 0.0
0.0075 0.0045 0.0
0.0056 0.0084 0.0
0.0101818 0.00509091 0.0
0.0015 0.0105 0.0
0 0.012 0.0
0.018 0 0.0
0.0166154 0.00138462 0.0
0.0138462 0.00415385 0.0
0.0145455 0.00145455 0.0
0.0124615 0.00553846 0.0
0.0042 0.0098 0.0
0.0028 0.0112 0.0
0.00727273 0.00763636 0.0
0.00872727 0.00636364 0.0
0.008 0.009 0.0
0.00581818 0.0101818 0.0
0.0110769 0.00692308 0.0
0.00145455 0.0127273 0.0
0 0.014 0.0
0.00290909 0.0130909 0.0
0.02 0 0.0
0.0185714 0.00142857 0.0
0.0171429 0.00285714 0.0
0.0142857 0.00571429 0.0
0.0153846 0.00415385 0.0
0.0128571 0.00714286 0.0
0.00533333 0.012 0.0
0.00969231 0.00830769 0.0
0.0084 0.0105 0.0
0.00692308 0.0110769 0.0
0.0117333 0.00933333 0.0
0.00145455 0.0145455 0.0
0 0.016 0.0
0.00307692 0.0152308 0.0
0.00415385 0.0138462 0.0
0.00571429 0.0142857 0.0
0.022 0 0.0
0.0205333 0.00133333 0.0
0.01925 0.00275 0.0
0.017875 0.004125 0.0
0.015125 0.006875 0.0
0.0165 0.0055 0.0
0.01375 0.00825 0.0
0.00714286 0.0128571 0.0
0.0102667 0.0106667 0.0
0.0088 0.012 0.0
0.0118914 0.0115258 0.0
0.0136331 0.0103174 0.0
0.00153846 0.0166154 0.0
0 0.018 0.0
0.00285714 0.0171429 0.0
0.006875 0.015125 0.0
0.0055 0.0165 0.0
0.024 0 0.0
0.0228881 0.00171629 0.0
0.0215131 0.00309129 0.0
0.0201381 0.00446629 0.0
0.0157091 0.00853956 0.0
0.0183105 0.00577303 0.0
0.0171788 0.00744466 0.0
0.0201209 0.00604606 0.0
0.0156286 0.00995574 0.0
0.00825 0.01375 0.0
0.0105763 0.0126865 0.0
0.0119878 0.0135694 0.0
0.0135162 0.0123848 0.0
0.0148855 0.0114546 0.0
0.00840082 0.0156792 0.0
0.00142857 0.0185714 0.0
0 0.02 0.0
0.00275 0.01925 0.0
0.004125 0.017875 0.0
0.00595599 0.01854 0.0
0.00733099 0.017165 0.0
0.026 0 0.0
0.0248313 0.00179442 0.0
0.0237762 0.00343257 0.0
0.023189 0.00532196 0.0
0.0217137 0.00549507 0.0
0.017624 0.00959406 0.0
0.0188968 0.00744381 0.0
0.0214992 0.0070393 0.0
0.0187497 0.010617 0.0
0.0169425 0.0111494 0.0
0.0108859 0.0147063 0.0
0.0120841 0.015613 0.0
0.0133993 0.0144523 0.0
0.0150183 0.0137492 0.0
0.0166374 0.0130461 0.0
0.00979814 0.0162027 0.0
0.00915217 0.0178265 0.0
0.001375 0.020625 0.0
0.00320599 0.02129 0.0
0 0.022 0.0
0.00549648 0.0202475 0.0
0.00709947 0.0198926 0.0
0.00870247 0.0195376 0.0
0.028 0 0.0
0.03 0 0.0
0.0267341 0.0017943 0.0
0.0256627 0.00358883 0.0
0.0246643 0.00514886 0.0
0.0237419 0.00659211 0.0
0.0196274 0.00911868 0.0
0.0212848 0.00858354 0.0
0.0226686 0.00801262 0.0
0.0198754 0.0116399 0.0
0.0182564 0.012343 0.0
0.0111955 0.0167261 0.0
0.0132824 0.0165197 0.0
0.0150396 0.015459 0.0
0.0182776 0.0140529 0.0
0.0166586 0.0147559 0.0
0.010187 0.0193364 0.0
0.00824296 0.0212451 0.0
0.0115046 0.0187433 0.0
0.00503697 0.0219551 0.0
0.00183099 0.022665 0.0
0.00366197 0.0233301 0.0
0 0.024 0.0
0.00686796 0.0226201 0.0
0.0100543 0.021903 0.0
0.032 0 0.0
0.0287256 0.00181759 0.0
0.0307216 0.00184857 0.0
0.0274682 0.0035886 0.0
0.026494 0.00538325 0.0
0.0255523 0.00686514 0.0
0.0244523 0.00796514 0.0
0.0214945 0.0109369 0.0
0.0234768 0.00968762 0.0
0.0218914 0.012777 0.0
0.019902 0.0137772 0.0
0.0131672 0.0185577 0.0
0.0149916 0.0175584 0.0
0.0166798 0.0164658 0.0
0.0182988 0.0157627 0.0
0.0115538 0.0212378 0.0
0.00900411 0.023396 0.0
0.0130533 0.0205725 0.0
0.00549296 0.0239951 0.0
0.00183087 0.0245759 0.0
0.00366173 0.0251518 0.0
0 0.026 0.0
0.00732394 0.0246601 0.0
0.0121081 0.0226801 0.0
0.0105054 0.0239413 0.0
0.034 0 0.0
0.032686 0.00179445 0.0
0.036 0 0.0
0.0294513 0.00363519 0.0
0.0314431 0.00369715 0.0
0.0284825 0.00545313 0.0
0.0273254 0.00717766 0.0
0.0264404 0.00858143 0.0
0.0252987 0.00969686 0.0
0.0246029 0.0109985 0.0
0.0233729 0.0115886 0.0
0.0233002 0.0132658 0.0
0.0215475 0.0152115 0.0
0.0199338 0.016342 0.0
0.0149906 0.0196595 0.0
0.0167007 0.0185971 0.0
0.0183201 0.0174725 0.0
0.00915493 0.0253252 0.0
0.0144209 0.0213989 0.0
0.00558672 0.025986 0.0
0.00186212 0.026569 0.0
0.00372424 0.027138 0.0
0.0138913 0.02346 0.0
0 0.028 0.0
0.00744896 0.026648 0.0
0.0128254 0.0246021 0.0
0.0109565 0.0259795 0.0
0.038 0 0.0
0.0346096 0.00188902 0.0
0.033372 0.0035889 0.0
0.0364971 0.0018889 0.0
0.04 0 0.0
0.021574 0.0173488 0.0
0.0226852 0.0164574 0.0
0.0301769 0.00545278 0.0
0.0321647 0.00554572 0.0
0.0289365 0.00717719 0.0
0.0281567 0.00897208 0.0
0.0273056 0.0102535 0.0
0.0263799 0.0114486 0.0
0.0252513 0.0122403 0.0
0.0250221 0.0138632 0.0
0.0241667 0.0152689 0.0
0.042 0 0.0
0.0199369 0.0188928 0.0
0.0167761 0.0214329 0.0
0.0184099 0.0196358 0.0
0.0093112 0.02731 0.0
0.0156745 0.02424 0.0
0.017156 0.0230515 0.0
0.00558635 0.0277071 0.0
0.00190172 0.0285655 0.0
0.00380345 0.029131 0.0
0.014193 0.0254285 0.0
0 0.03 0.0
0.00744847 0.0282761 0.0
0.0127115 0.0266169 0.0
0.0111255 0.027955 0.0
0.0384899 0.00194054 0.0
0.0352192 0.00377804 0.0
0.0340579 0.00538335 0.0
0.0371532 0.00367681 0.0
0.0403712 0.00194066 0.0
0.0216006 0.0194861 0.0
0.0230821 0.0182976 0.0
0.0245636 0.0171091 0.0
0.0324955 0.00727085 0.0
0.0309026 0.00727037 0.0
0.0296706 0.00897149 0.0
0.0289585 0.0107028 0.0
0.0281569 0.0118986 0.0
0.0271297 0.0128919 0.0
0.0265874 0.0144063 0.0
0.0260451 0.0159206 0.0
0.044 0 0.0
0.0423405 0.00189446 0.0
0.046 0 0.0
0.0201191 0.0206745 0.0
0.0186375 0.021863 0.0
0.0214903 0.0214344 0.0
0.048 0 0.0
0.00909521 0.0291693 0.0
0.0158565 0.0258608 0.0
0.0183238 0.0245691 0.0
0.00570517 0.0296965 0.0
0.00190185 0.0304684 0.0
0.0038037 0.0309367 0.0
0.0143293 0.0269894 0.0
0 0.032 0.0
0.0076069 0.030262 0.0
0.0127107 0.0279983 0.0
0.0108674 0.0297868 0.0
0.0389798 0.00388108 0.0
0.0358288 0.00566706 0.0
0.0344589 0.00739478 0.0
0.0374912 0.00566669 0.0
0.0407423 0.00388133 0.0
0.0229852 0.0204206 0.0
0.0247827 0.0190728 0.0
0.0262251 0.0182306 0.0
0.0331171 0.00908188 0.0
0.0316255 0.00908131 0.0
0.0303787 0.0107022 0.0
0.0297554 0.0124228 0.0
0.0290081 0.0135436 0.0
0.0280804 0.0151059 0.0
0.0271528 0.0166682 0.0
0.0443319 0.00196508 0.0
0.042681 0.00378891 0.0
0.0463063 0.00193254 0.0
0.0481805 0.00193254 0.0
0.020576 0.0231714 0.0
0.0228615 0.0221943 0.0
0.05 0 0.0
0.00950862 0.0308275 0.0
0.0160385 0.0274815 0.0
0.0175181 0.0269822 0.0
0.0208673 0.0246613 0.0
0.0189976 0.0264829 0.0
0.00570555 0.0314051 0.0
0.00186252 0.0324425 0.0
0.00372504 0.0328849 0.0
0.0144656 0.0285503 0.0
0 0.034 0.0
0.00745008 0.0321586 0.0
0.012611 0.0303943 0.0
0.0113429 0.0313729 0.0
0.0394697 0.00582162 0.0
0.0350653 0.00921873 0.0
0.0364384 0.00755607 0.0
0.0379882 0.00755558 0.0
0.0411135 0.00582199 0.0
0.0243698 0.0213552 0.0
0.0264834 0.019848 0.0
0.0276087 0.0182949 0.0
0.0337151 0.0108242 0.0
0.0323211 0.0108235 0.0
0.031386 0.0124942 0.0
0.0306227 0.0138415 0.0
0.0298593 0.0151887 0.0
0.028734 0.0167418 0.0
0.0446638 0.00393017 0.0
0.0432967 0.0055681 0.0
0.0466126 0.00386508 0.0
0.0483611 0.00386508 0.0
0.0501573 0.00190862 0.0
0.0242328 0.0229542 0.0
0.0225145 0.0244798 0.0
0.0255637 0.0240314 0.0
0.052 0 0.0
0.00950924 0.0323418 0.0
0.0184865 0.0280686 0.0
0.0162205 0.0291023 0.0
0.0219821 0.0260605 0.0
0.0206592 0.0276044 0.0
0.00558756 0.0333274 0.0
0.00195134 0.0343618 0.0
0.00383307 0.0348793 0.0
0.0143545 0.0310019 0.0
0 0.036 0.0
0.00745008 0.0337699 0.0
0.0131657 0.031915 0.0
0.0111091 0.0332187 0.0
0.0399596 0.00776215 0.0
0.0356545 0.0109907 0.0
0.0384738 0.00940089 0.0
0.037034 0.00940148 0.0
0.0414846 0.00776266 0.0
0.0265931 0.0225918 0.0
0.0276224 0.0211523 0.0
0.0294907 0.0182041 0.0
0.0286518 0.0197128 0.0
0.0349814 0.0127619 0.0
0.0330166 0.0125656 0.0
0.0325138 0.0143087 0.0
0.0324896 0.0158617 0.0
0.0307106 0.0168338 0.0
0.0433621 0.00757783 0.0
0.0449957 0.00589525 0.0
0.0469189 0.00579762 0.0
0.0485416 0.00579762 0.0
0.0503147 0.00381723 0.0
0.0521443 0.00201143 0.0
0.0245343 0.0254709 0.0
0.0273434 0.0244388 0.0
0.0265978 0.026526 0.0
0.054 0 0.0
0.0541223 0.00200453 0.0
0.023975 0.0269617 0.0
0.0093126 0.0342124 0.0
0.0197315 0.0291667 0.0
0.0179754 0.0296543 0.0
0.0164793 0.0310357 0.0
0.0224756 0.0283499 0.0
0.0214462 0.0297895 0.0
0.0057496 0.0353189 0.0
0.00191666 0.0363379 0.0
0.00383332 0.0366757 0.0
0.0149885 0.032457 0.0
0 0.038 0.0
0.00780535 0.0354471 0.0
0.0128943 0.033736 0.0
0.0143199 0.0339896 0.0
0.0111091 0.0346391 0.0
0.0404334 0.00963908 0.0
0.0367357 0.0123882 0.0
0.0389503 0.0112114 0.0
0.0422815 0.00941077 0.0
0.0282676 0.0225481 0.0
0.0294525 0.0214586 0.0
0.0315616 0.0184784 0.0
0.030507 0.0199685 0.0
0.0349111 0.0143087 0.0
0.0344076 0.01605 0.0
0.0331933 0.0175815 0.0
0.0436914 0.00941018 0.0
0.0453272 0.0078584 0.0
0.0472249 0.00772825 0.0
0.050472 0.00572585 0.0
0.048722 0.00772825 0.0
0.0522885 0.00402285 0.0
0.0524328 0.00603428 0.0
0.0542447 0.00400906 0.0
0.0289129 0.0239439 0.0
0.0252343 0.0274191 0.0
0.0280533 0.0263212 0.0
0.0272057 0.0283388 0.0
0.056 0 0.0
0.0559774 0.0040088 0.0
0.0559887 0.0020044 0.0
0.0242827 0.0291082 0.0
0.00957566 0.0361965 0.0
0.01989 0.0306465 0.0
0.0182641 0.0315811 0.0
0.0168113 0.032999 0.0
0.0231252 0.0303993 0.0
0.0216111 0.0312218 0.0
0.00574998 0.0370136 0.0
0.00188862 0.0383166 0.0
0.00383307 0.0384721 0.0
0.0157454 0.0342432 0.0
0 0.04 0.0
0.00766664 0.0373514 0.0
0.013072 0.0353876 0.0
0.0146795 0.0354874 0.0
0.0114127 0.0366179 0.0
0.040903 0.0114991 0.0
0.0382026 0.0130227 0.0
0.0373932 0.0141082 0.0
0.0399752 0.0126738 0.0
0.0427217 0.0112267 0.0
0.0302194 0.0231959 0.0
0.0312279 0.0213617 0.0
0.0323855 0.0200706 0.0
0.0363646 0.0163056 0.0
0.0351032 0.0177921 0.0
0.0348602 0.0194628 0.0
[...]
POINT_DATA 3357
VECTORS u float
0 0 0.0
0 0.0599682 0.0
0.0427203 0 0.0
0 0.0600562 0.0
0.0431261 0.0600276 0.0
0.0427568 0.0599893 0.0
0.0427488 0 0.0
0.0427144 0 0.0
0.0428328 0 0.0
0 0.0602073 0.0
0.042968 0 0.0
0.0438244 0.0600971 0.0
0.0431729 0.0600992 0.0
0.042904 0.0604465 0.0
0.0428099 0.06013 0.0
0.042968 0.0608924 0.0
0.0454246 0.0603125 0.0
0 0.0604738 0.0
0.0431228 0.0614472 0.0
0.0431351 0 0.0
0.0455277 0.0603708 0.0
0.0440819 0.0602672 0.0
0.0432862 0.0606859 0.0
0.0432591 0.0602959 0.0
0.0434087 0.0611404 0.0
0.0434811 0.061815 0.0
0.0467067 0.0605339 0.0
0 0.0607595 0.0
0.0434064 0 0.0
0.0437408 0 0.0
0.0435717 0.0625052 0.0
0.0440411 0.0619661 0.0
0.0457001 0.0605359 0.0
0.0471476 0.0606199 0.0
0.0446461 0.0605722 0.0
0.043862 0.0607364 0.0
0.0465112 0.0607879 0.0
0.0442519 0.0614702 0.0
0.0487874 0.0608377 0.0
0 0.0611223 0.0
0.0442231 0 0.0
0.0439988 0.0648674 0.0
0.0441698 0.0629636 0.0
0.0435778 0.063112 0.0
0.0446707 0.0623387 0.0
0.0479841 0.060814 0.0
0.0496991 0.0610015 0.0
0.0458819 0.0609519 0.0
0.0449334 0.0611459 0.0
0.047133 0.0612595 0.0
0.0484792 0.0610814 0.0
0.0454157 0.061882 0.0
0.0516898 0.0612896 0.0
0 0.0615853 0.0
0.0521855 0.0613939 0.0
0.0447528 0 0.0
0.0444164 0.0661207 0.0
0.0443052 0.0649799 0.0
0.0449504 0.0632272 0.0
0.0443744 0.0638316 0.0
0.0457085 0.0626058 0.0
0.0506005 0.0613094 0.0
0.0464933 0.0615635 0.0
0.0487196 0.0615457 0.0
0.0494397 0.0613577 0.0
0.0474529 0.062298 0.0
0.054809 0.0617223 0.0
0 0.0621347 0.0
0.0559437 0.0619504 0.0
0.053478 0.0616253 0.0
0.0541768 0.0618896 0.0
0.0454092 0 0.0
0.0449609 0.0679178 0.0
0.0447737 0.06671 0.0
0.0448247 0.0655073 0.0
0.0457203 0.0637143 0.0
0.0451165 0.064563 0.0
0.0465853 0.0630613 0.0
0.0519149 0.061721 0.0
0.0488352 0.0619879 0.0
0.0505988 0.0618348 0.0
0.04984 0.0626025 0.0
0.0485035 0.0631619 0.0
0.0581649 0.0623183 0.0
0 0.0627517 0.0
0.0590965 0.0625025 0.0
0.0552693 0.0621506 0.0
0.0576624 0.0623709 0.0
0.0462346 0 0.0
0.0458266 0.0706371 0.0
0.0455053 0.0689626 0.0
0.0454736 0.0675524 0.0
0.0469937 0.0641342 0.0
0.0455904 0.0659232 0.0
0.0463466 0.0650614 0.0
0.0461247 0.0675047 0.0
0.0481836 0.0641158 0.0
0.0530876 0.0620223 0.0
0.0513951 0.0623455 0.0
0.0525425 0.0628959 0.0
0.0508652 0.0632957 0.0
0.0497296 0.0638031 0.0
0.0561586 0.0624791 0.0
0.0619689 0.0629431 0.0
0 0.0634553 0.0
0.063244 0.0631895 0.0
0.0604141 0.0627243 0.0
0.0617266 0.063039 0.0
0.0589231 0.0627521 0.0
0.0472312 0 0.0
0.0466957 0.0734001 0.0
0.0464751 0.0718559 0.0
0.0467231 0.0709993 0.0
0.0463178 0.0691819 0.0
0.0479592 0.0653719 0.0
0.0465918 0.0663673 0.0
0.0469589 0.0688758 0.0
0.0490007 0.066236 0.0
0.0494305 0.0649383 0.0
0.0543789 0.0627533 0.0
0.0557027 0.0632283 0.0
0.0537076 0.0634944 0.0
0.0525653 0.0640438 0.0
0.0515621 0.0648042 0.0
0.0570319 0.0628764 0.0
0.059994 0.0631251 0.0
0.0661913 0.0636844 0.0
0.067433 0.0639276 0.0
0 0.0642477 0.0
0.0649145 0.0635708 0.0
0.0642003 0.0635776 0.0
0.0631665 0.0635363 0.0
0.0483666 0 0.0
0.0496779 0 0.0
0.047673 0.0760945 0.0
0.0473283 0.0744165 0.0
0.0472165 0.072897 0.0
0.0473477 0.0715109 0.0
0.0478309 0.0669676 0.0
0.047732 0.0684972 0.0
0.0477255 0.0701086 0.0
0.049997 0.0670987 0.0
0.0507041 0.0658261 0.0
0.0576556 0.063196 0.0
0.0570296 0.0637459 0.0
0.0550618 0.0642068 0.0
0.0527624 0.065853 0.0
0.0538335 0.0649078 0.0
0.0626764 0.0636829 0.0
0.0670577 0.0640738 0.0
0.0613395 0.0637393 0.0
0.06918 0.0642428 0.0
0.0707411 0.0644907 0.0
0.0723705 0.0647846 0.0
0 0.0651018 0.0
0.0703703 0.0645174 0.0
0.0681677 0.0644311 0.0
0.0511709 0 0.0
0.0488547 0.0793605 0.0
0.0502135 0.0829352 0.0
0.0482658 0.077191 0.0
0.0481068 0.0755222 0.0
0.0481114 0.0740054 0.0
0.0481928 0.0722971 0.0
0.0495125 0.068586 0.0
0.0488897 0.0708655 0.0
0.0512247 0.0688273 0.0
0.0523272 0.0670279 0.0
0.060721 0.0640432 0.0
0.0585101 0.064427 0.0
0.0564223 0.0650262 0.0
0.0551023 0.0658929 0.0
0.06638 0.0643741 0.0
0.0717275 0.0648826 0.0
0.0646785 0.0644484 0.0
0.0736095 0.0650695 0.0
0.075357 0.0653435 0.0
0.0765773 0.0655874 0.0
0 0.066039 0.0
0.0748861 0.0653415 0.0
0.0695303 0.0648501 0.0
0.0727042 0.0651611 0.0
0.0528607 0 0.0
0.0517204 0.0868077 0.0
0.0547101 0 0.0
0.0494748 0.0805418 0.0
0.0508634 0.0841788 0.0
0.0491618 0.0786867 0.0
0.0489894 0.0766532 0.0
0.0491671 0.0750947 0.0
0.0493778 0.073263 0.0
0.0500545 0.0721543 0.0
0.050285 0.0705103 0.0
0.0518355 0.0702952 0.0
0.0540302 0.0683202 0.0
0.0557014 0.0669887 0.0
0.0624618 0.0647163 0.0
0.0600188 0.0652438 0.0
0.05781 0.0659337 0.0
0.0762076 0.0656585 0.0
0.0661363 0.0649307 0.0
0.0783135 0.0659404 0.0
0.0798843 0.0662942 0.0
0.0811402 0.0665447 0.0
0.0709392 0.0654075 0.0
0 0.067041 0.0
0.0796245 0.0662185 0.0
0.0738521 0.0655819 0.0
0.0774282 0.0659652 0.0
0.0567006 0 0.0
0.0533798 0.0906364 0.0
0.0523468 0.0880298 0.0
0.0551551 0.0943861 0.0
0.0588418 0 0.0
0.0570425 0.0682584 0.0
0.0556458 0.0693408 0.0
0.0501785 0.0817548 0.0
0.0515821 0.0853484 0.0
0.0498128 0.0792666 0.0
0.0500296 0.0777285 0.0
0.0503101 0.0761375 0.0
0.050766 0.0745356 0.0
0.0511272 0.0728147 0.0
0.0525582 0.0722571 0.0
0.0540556 0.070982 0.0
0.0610714 0 0.0
0.0599228 0.066968 0.0
0.0656285 0.0656328 0.0
0.0616311 0.0661382 0.0
0.0808586 0.0665176 0.0
0.0720784 0.0658672 0.0
0.0690653 0.0659914 0.0
0.0824038 0.0667708 0.0
0.0847233 0.067311 0.0
0.0859312 0.0675649 0.0
0.0753811 0.0659719 0.0
0 0.0681136 0.0
0.0836078 0.0669867 0.0
0.0785438 0.0662934 0.0
0.0820084 0.0667997 0.0
0.0571812 0.098535 0.0
0.0539663 0.0917664 0.0
0.0530207 0.0892426 0.0
0.0557936 0.0956123 0.0
0.0592132 0.102122 0.0
0.0605611 0.0681627 0.0
0.058246 0.0695278 0.0
0.0563478 0.0711632 0.0
0.0520432 0.0858133 0.0
0.0509652 0.0828736 0.0
0.05075 0.0803115 0.0
0.0511414 0.0787613 0.0
0.0515382 0.0771765 0.0
0.0519811 0.075349 0.0
0.0532264 0.0742459 0.0
0.0547696 0.0731806 0.0
0.0633983 0 0.0
0.0614346 0.105913 0.0
0.06577 0 0.0
0.063146 0.0670988 0.0
0.0659566 0.0664477 0.0
0.0642395 0.0680561 0.0
0.0681671 0 0.0
0.0855439 0.0673585 0.0
0.0759349 0.0662958 0.0
0.0719889 0.0666366 0.0
0.0870933 0.0677906 0.0
0.0890564 0.0683422 0.0
0.0900956 0.0685479 0.0
0.0789999 0.0665101 0.0
0 0.0692323 0.0
0.0882274 0.0680155 0.0
0.0818116 0.0668368 0.0
0.0867626 0.067618 0.0
0.0576357 0.099446 0.0
0.0545469 0.0928545 0.0
0.0535404 0.0897543 0.0
0.0561278 0.0961378 0.0
0.0595513 0.10284 0.0
0.0618888 0.069214 0.0
0.0591151 0.071098 0.0
0.0576605 0.0729145 0.0
0.0528067 0.0867679 0.0
0.0518558 0.0839051 0.0
0.0517475 0.0812765 0.0
0.0523685 0.0797733 0.0
0.0528932 0.0781987 0.0
0.0540438 0.076314 0.0
0.0556156 0.074571 0.0
0.0637651 0.109377 0.0
0.0617487 0.106539 0.0
0.0661189 0.112567 0.0
0.0683626 0.114952 0.0
0.0681145 0.0674349 0.0
0.0652179 0.0689769 0.0
0.0705205 0 0.0
0.0893744 0.0681914 0.0
0.0797397 0.0668512 0.0
0.0781607 0.0669693 0.0
0.0712745 0.0677141 0.0
0.0763928 0.0672043 0.0
0.0910948 0.0687179 0.0
0.093549 0.0694587 0.0
0.0944633 0.0696591 0.0
0.082825 0.0671047 0.0
0 0.070402 0.0
0.0926517 0.0690384 0.0
0.087815 0.0678605 0.0
0.0903557 0.0683897 0.0
0.0581163 0.100278 0.0
0.0542296 0.0907322 0.0
0.0552015 0.0938201 0.0
0.0566171 0.096972 0.0
0.059898 0.103525 0.0
0.0631269 0.0703208 0.0
0.0599876 0.0728839 0.0
0.0575838 0.0748239 0.0
0.0536056 0.0876316 0.0
0.0527857 0.084862 0.0
0.0530309 0.082724 0.0
0.0535177 0.0809731 0.0
0.0543813 0.0791975 0.0
0.0557034 0.0769194 0.0
0.0640782 0.10994 0.0
0.0623623 0.107554 0.0
0.0664 0.112982 0.0
0.0684875 0.11522 0.0
0.0706933 0.117171 0.0
0.0662722 0.0699912 0.0
0.0702143 0.0686707 0.0
0.0680224 0.0711248 0.0
0.0728221 0 0.0
0.0928597 0.0690044 0.0
0.0804196 0.0674078 0.0
0.0837832 0.0674125 0.0
0.0741474 0.0683583 0.0
0.0783901 0.0679668 0.0
0.0953821 0.0698277 0.0
0.0977718 0.0705872 0.0
0.0987822 0.0708274 0.0
0.0888154 0.0681167 0.0
0 0.0716018 0.0
0.096263 0.0699367 0.0
0.0913012 0.0685507 0.0
0.0946449 0.0693512 0.0
0.058573 0.1011 0.0
0.0549481 0.0916336 0.0
0.057197 0.0978307 0.0
0.0558418 0.0947037 0.0
0.0601587 0.104171 0.0
0.0646589 0.0724445 0.0
0.06188 0.0741161 0.0
0.0573873 0.0777371 0.0
0.0594055 0.0759731 0.0
0.0550865 0.0897184 0.0
0.0538589 0.0858453 0.0
0.0545082 0.0844045 0.0
0.0555148 0.0838762 0.0
0.0559549 0.0802815 0.0
0.0623104 0.10756 0.0
0.0643163 0.110514 0.0
0.06661 0.113396 0.0
0.0685504 0.115496 0.0
0.070789 0.117362 0.0
0.0729759 0.118885 0.0
0.0716107 0.0700432 0.0
0.0681479 0.0729466 0.0
0.073046 0.0717499 0.0
0.0750331 0 0.0
0.0751521 0.119909 0.0
0.0754336 0.069623 0.0
0.0970249 0.0700747 0.0
0.0827855 0.0680017 0.0
0.0846093 0.0678075 0.0
0.0883578 0.0681895 0.0
0.079502 0.0688214 0.0
0.0836199 0.0685932 0.0
0.0995476 0.0709893 0.0
0.101626 0.0717858 0.0
0.102287 0.0719124 0.0
0.0922922 0.0687599 0.0
0 0.0728208 0.0
0.0997653 0.070899 0.0
0.0956025 0.0695375 0.0
0.0959336 0.069529 0.0
0.0978385 0.070141 0.0
0.0590487 0.101745 0.0
0.0560379 0.0936703 0.0
0.0576251 0.0984976 0.0
0.060903 0.105525 0.0
0.0640208 0.0746019 0.0
0.0618731 0.0766519 0.0
0.0577207 0.0812462 0.0
0.0595024 0.0788748 0.0
0.055492 0.0891799 0.0
0.0561553 0.0875362 0.0
0.056881 0.0845829 0.0
0.0624512 0.108123 0.0
0.0645384 0.110981 0.0
0.0667826 0.1138 0.0
0.0708391 0.117564 0.0
0.068566 0.115804 0.0
0.0730319 0.119 0.0
0.0730574 0.119085 0.0
0.0752024 0.12002 0.0
0.0664577 0.0750645 0.0
0.0759485 0.0704492 0.0
0.0718379 0.0733355 0.0
0.077268 0.0720696 0.0
0.077122 0 0.0
0.0769856 0.120373 0.0
0.0770913 0.120379 0.0
0.080568 0.0698363 0.0
0.101193 0.0711939 0.0
0.0864212 0.0684005 0.0
0.0892289 0.0685031 0.0
0.0930831 0.0689933 0.0
0.0844176 0.069351 0.0
0.0872094 0.0689216 0.0
0.102877 0.0720025 0.0
0.105051 0.0729953 0.0
0.10541 0.073016 0.0
0.0962255 0.0695631 0.0
0 0.0740424 0.0
0.103425 0.0720655 0.0
0.0991896 0.0703914 0.0
0.0992242 0.0702905 0.0
0.101871 0.0712371 0.0
0.0594971 0.102441 0.0
0.0572157 0.096467 0.0
0.0568774 0.0944765 0.0
0.0586374 0.10034 0.0
0.0613354 0.106145 0.0
0.064542 0.077276 0.0
0.0613167 0.0795779 0.0
0.0594624 0.0821154 0.0
0.0570605 0.0916632 0.0
0.0575618 0.0883761 0.0
0.0589561 0.0872806 0.0
0.0632943 0.109545 0.0
0.0669264 0.11425 0.0
0.0646448 0.11144 0.0
0.070817 0.11778 0.0
0.0685104 0.116062 0.0
0.0725274 0.118914 0.0
0.0747803 0.120027 0.0
0.0771394 0.120472 0.0
0.0758833 0.120306 0.0
0.0699452 0.0764353 0.0
0.0665885 0.0784847 0.0
0.0718421 0.0778394 0.0
0.0806676 0.0708736 0.0
0.0733923 0.0758811 0.0
0.0777155 0.0732314 0.0
0.0816951 0.0723379 0.0
0.0790672 0 0.0
0.0789937 0.120338 0.0
0.0788668 0.120319 0.0
0.0852615 0.0702297 0.0
0.10397 0.0720857 0.0
0.0900374 0.0688709 0.0
0.0928373 0.0690821 0.0
0.0963393 0.0696097 0.0
0.0892986 0.0697912 0.0
0.090798 0.0693194 0.0
0.10584 0.073039 0.0
0.108446 0.0742153 0.0
0.108648 0.0742262 0.0
0.101956 0.0709897 0.0
0.0999148 0.0703607 0.0
0 0.0752627 0.0
0.106217 0.0730302 0.0
0.102564 0.0712917 0.0
0.104504 0.0720528 0.0
0.0786756 0.120382 0.0
0.0577796 0.0955069 0.0
0.0598931 0.103207 0.0
0.0588065 0.0996276 0.0
0.0616516 0.106766 0.0
0.0637521 0.0806728 0.0
0.0663461 0.0809979 0.0
0.0605015 0.0860371 0.0
0.0614403 0.0830743 0.0
0.0583268 0.0925635 0.0
0.0598407 0.0894549 0.0
0.0635899 0.110221 0.0
0.0662352 0.113906 0.0
0.0676918 0.115595 0.0
0.0707368 0.117946 0.0
0.0691525 0.116979 0.0
0.0723418 0.119096 0.0
0.0745959 0.120079 0.0
0.0770321 0.120601 0.0
0.069812 0.0800743 0.0
0.0738466 0.079247 0.0
0.0756245 0.0767232 0.0
0.0860284 0.0712288 0.0
0.0850843 0.0724324 0.0
0.0798248 0.0742967 0.0
0.0808191 0 0.0
0.0807261 0.119632 0.0
0.082371 0 0.0
0.0805795 0.119663 0.0
0.0800943 0.119865 0.0
0.0901178 0.0705935 0.0
0.107225 0.0732374 0.0
0.0935352 0.0693908 0.0
0.10047 0.0704778 0.0
0.0964148 0.0696982 0.0
0.107729 0.0732394 0.0
0.0937882 0.0699209 0.0
0.109015 0.0742291 0.0
0.111019 0.0753675 0.0
0.111247 0.0754212 0.0
0.105495 0.071998 0.0
0.102478 0.0709443 0.0
0 0.0764585 0.0
0.109818 0.074411 0.0
0.107367 0.0727936 0.0
0.0797242 0.119993 0.0
0.0784231 0.120437 0.0
0.0590683 0.0956466 0.0
0.0588402 0.098094 0.0
0.0604043 0.103864 0.0
0.0620936 0.107444 0.0
0.0639553 0.110851 0.0
0.0635727 0.0840039 0.0
0.0674368 0.0833283 0.0
0.0624563 0.0867018 0.0
0.0598245 0.0933974 0.0
0.0608902 0.0918101 0.0
0.0662298 0.114094 0.0
0.0691799 0.117363 0.0
0.0706172 0.118351 0.0
0.0720415 0.119291 0.0
0.0703131 0.11852 0.0
0.0763179 0.120652 0.0
0.0740202 0.120301 0.0
0.0743514 0.120165 0.0
0.0781344 0.120532 0.0
0.0714285 0.0828531 0.0
0.0779234 0.0776595 0.0
0.0760471 0.0801312 0.0
0.0813377 0.0755291 0.0
0.0909747 0.0715599 0.0
0.088525 0.0725185 0.0
0.0848855 0.0738358 0.0
0.0837254 0 0.0
0.0821996 0.118307 0.0
0.0821238 0.118308 0.0
0.0835575 0.116651 0.0
0.0819094 0.118394 0.0
0.0848816 0 0.0
0.0858452 0 0.0
0.0866359 0 0.0
0.0816558 0.118491 0.0
0.0946395 0.0706241 0.0
0.110284 0.0744107 0.0
0.102975 0.0710434 0.0
0.0969864 0.0699278 0.0
0.100058 0.0704352 0.0
0.110697 0.0743527 0.0
0.0975846 0.070305 0.0
0.0981345 0.070699 0.0
0.111525 0.0754219 0.0
0.112972 0.0764993 0.0
0.113134 0.0764889 0.0
0.108721 0.0730759 0.0
0.106004 0.0719773 0.0
0.105729 0.0717362 0.0
0 0.0776124 0.0
0.111831 0.0753629 0.0
0.111073 0.0742767 0.0
0.0969227 0.0712283 0.0
0.0809732 0.118986 0.0
0.0793309 0.120149 0.0
0.0606497 0.097439 0.0
0.059933 0.098912 0.0
0.0608339 0.102663 0.0
0.0662954 0.114307 0.0
0.0648283 0.112316 0.0
0.0618994 0.10649 0.0
0.06351 0.109909 0.0
0.0686908 0.0860016 0.0
0.0718035 0.0871523 0.0
0.0648613 0.0859707 0.0
0.0627796 0.0908003 0.0
0.0615351 0.0960212 0.0
0.0682711 0.116747 0.0
0.069791 0.118236 0.0
0.072466 0.119981 0.0
0.0714581 0.119514 0.0
0.0744866 0.12072 0.0
0.0759717 0.120786 0.0
0.078856 0.120306 0.0
0.0776376 0.12069 0.0
0.0758356 0.0837622 0.0
0.0800521 0.0822911 0.0
0.0804044 0.0790457 0.0
0.0846736 0.0757164 0.0
0.0975213 0.0721734 0.0
0.0934045 0.0728408 0.0
0.0891633 0.0740955 0.0
0.0847239 0.114522 0.0
0.0830388 0.117025 0.0
0.0833327 0.116838 0.0
0.0844953 0.114773 0.0
0.0826972 0.117246 0.0
0.0856535 0.111998 0.0
0.0864753 0.109315 0.0
0.0872531 0 0.0
0.0877149 0 0.0
0.0883063 0 0.0
0.0883252 0 0.0
0.0882344 0 0.0
0.0880396 0 0.0
0.0870849 0.106184 0.0
0.0823367 0.117429 0.0
0.112098 0.0752998 0.0
0.104389 0.0713774 0.0
0.101637 0.0708964 0.0
0.101112 0.0714337 0.0
0.11232 0.0751649 0.0
0.102152 0.0711703 0.0
0.113288 0.0764263 0.0
0.114736 0.0776464 0.0
0.114828 0.0776255 0.0
0.112905 0.0748404 0.0
0.109098 0.073036 0.0
0.110577 0.0737532 0.0
0.106849 0.0719771 0.0
0.1082 0.0724818 0.0
0 0.078723 0.0
0.11379 0.076528 0.0
0.113655 0.076152 0.0
0.114032 0.0757661 0.0
0.101738 0.0720704 0.0
0.0809938 0.118788 0.0
0.0615588 0.101488 0.0
0.0625445 0.106862 0.0
0.0672813 0.115833 0.0
0.0653429 0.11319 0.0
0.0638862 0.11026 0.0
0.0667195 0.0888148 0.0
0.0695358 0.090401 0.0
0.0742088 0.0890068 0.0
0.0651065 0.0916471 0.0
0.0634477 0.0966829 0.0
0.0628828 0.101995 0.0
0.0800664 0.119379 0.0
0.0692009 0.11801 0.0
0.0711604 0.119641 0.0
0.0732551 0.120705 0.0
0.0759817 0.121112 0.0
0.0763274 0.120961 0.0
0.078321 0.120509 0.0
0.0776737 0.0860072 0.0
0.0820701 0.0848772 0.0
0.078149 0.0910913 0.0
0.0849937 0.0781569 0.0
0.0853703 0.0805802 0.0
0.0897473 0.0760003 0.0
0.0981916 0.0733055 0.0
0.0927055 0.0744346 0.0
0.08785 0 0.0
0.0875529 0 0.0
0.085469 0.112217 0.0
0.083629 0.115697 0.0
0.0842079 0.115007 0.0
0.0851711 0.112556 0.0
0.0831962 0.116083 0.0
0.0840604 0.114381 0.0
0.0862356 0.109773 0.0
0.0868727 0.106627 0.0
0.0875726 0.10297 0.0
0.0882322 0 0.0
0.0878977 0.0783002 0.0
0.0880748 0 0.0
0.0882134 0.0859903 0.0
0.087932 0.099641 0.0
0.0882942 0.0883935 0.0
0.0882658 0.0927566 0.0
0.088144 0.0960759 0.0
0.0873294 0.10373 0.0
0.082649 0.116335 0.0
0.105658 0.0717115 0.0
0.103921 0.071883 0.0
0.113843 0.0759898 0.0
0.106197 0.0719684 0.0
0.115118 0.0777106 0.0
0.115329 0.0776534 0.0
0.101095 0.0738319 0.0
0.103542 0.0731359 0.0
0.115886 0.0787458 0.0
0.11593 0.0787172 0.0
0.114479 0.0757191 0.0
0.113201 0.0746736 0.0
0.110913 0.0735724 0.0
0.108746 0.0724343 0.0
0.109274 0.0726683 0.0
0.111181 0.0734631 0.0
0 0.0797762 0.0
0.115516 0.0775221 0.0
0.115331 0.0770915 0.0
0.115477 0.0768421 0.0
0.106744 0.0723563 0.0
0.107134 0.0729494 0.0
0.0811139 0.118114 0.0
0.0820123 0.116588 0.0
0.0633774 0.107122 0.0
0.0644567 0.110582 0.0
0.0673897 0.116237 0.0
0.0656965 0.113552 0.0
0.0676662 0.0937814 0.0
0.0708451 0.0944882 0.0
0.0746158 0.0935157 0.0
0.0657084 0.0973445 0.0
0.0646299 0.102488 0.0
0.0645203 0.107388 0.0
0.0794419 0.119544 0.0
0.080446 0.11838 0.0
0.0720462 0.12036 0.0
0.0700706 0.11914 0.0
0.0738542 0.121107 0.0
0.0749477 0.121246 0.0
0.0763304 0.121099 0.0
0.0772586 0.120839 0.0
0.0783997 0.120225 0.0
0.0825092 0.0888531 0.0
0.0861778 0.0842247 0.0
0.078938 0.0950603 0.0
0.0826585 0.0924776 0.0
0.0893128 0.0783685 0.0
0.0903601 0.0811931 0.0
0.0946857 0.0762767 0.0
0.0987801 0.0749271 0.0
0.0863267 0 0.0
0.0875891 0.0739139 0.0
0.0872624 0.0702542 0.0
0.086797 0 0.0
0.0872118 0 0.0
0.0859245 0.110177 0.0
0.0855329 0.110569 0.0
0.0848032 0.112841 0.0
0.0835894 0.113995 0.0
0.0843492 0.112986 0.0
0.0875888 0.0753652 0.0
0.086559 0.107167 0.0
0.0869958 0.104442 0.0
0.0877193 0.1004 0.0
0.087841 0.0793174 0.0
0.0881044 0.0819637 0.0
0.0881697 0.0863089 0.0
0.087936 0.0968176 0.0
0.0881198 0.0890812 0.0
0.0880824 0.0936348 0.0
0.0873892 0.101514 0.0
0.0829573 0.114299 0.0
0.108762 0.0725986 0.0
0.116016 0.0786402 0.0
0.116093 0.0785163 0.0
0.111002 0.0731621 0.0
0.103922 0.0742999 0.0
0.107446 0.073784 0.0
0.116471 0.07974 0.0
0.116463 0.0796542 0.0
0.11468 0.0754993 0.0
0.115654 0.0765891 0.0
0.110673 0.0729847 0.0
0.113476 0.0744572 0.0
0.111477 0.0733438 0.0
0 0.0807671 0.0
0.116583 0.0807115 0.0
0.116213 0.0783396 0.0
0.116351 0.0781288 0.0
0.11647 0.0778832 0.0
0.109757 0.0731648 0.0
0.109919 0.0737499 0.0
0.082267 0.114666 0.0
0.0813375 0.116851 0.0
0.0687897 0.117907 0.0
0.0652868 0.110881 0.0
0.0661965 0.113893 0.0
0.0676999 0.116538 0.0
0.0683417 0.096992 0.0
0.0716128 0.098054 0.0
0.0757085 0.0992662 0.0
0.0663712 0.108481 0.0
0.0668129 0.102962 0.0
0.0663468 0.105586 0.0
0.0665592 0.111181 0.0
0.0794423 0.11905 0.0
0.0718082 0.120549 0.0
0.0700082 0.119319 0.0
0.0735473 0.121271 0.0
0.0757728 0.121236 0.0
0.0778135 0.120352 0.0
0.0805754 0.100762 0.0
0.0871503 0.0884331 0.0
0.091629 0.0846298 0.0
0.0838639 0.0969184 0.0
0.0877199 0.0941761 0.0
0.0907208 0.0914988 0.0
0.0953591 0.0787133 0.0
0.0962153 0.0818116 0.0
0.100304 0.0767552 0.0
0.0851831 0 0.0
0.0858092 0 0.0
0.086037 0.0568866 0.0
0.0864221 0.060983 0.0
0.0872249 0.0709835 0.0
0.0868303 0.0658861 0.0
0.0861644 0.107643 0.0
0.0855769 0.108781 0.0
0.0850809 0.110921 0.0
0.0839759 0.111815 0.0
0.0845382 0.11121 0.0
0.087188 0.0726653 0.0
0.0874595 0.0768221 0.0
0.0865652 0.105058 0.0
0.0876517 0.0802952 0.0
0.0869671 0.102227 0.0
0.0876173 0.0976193 0.0
0.0879095 0.0837515 0.0
0.0878308 0.0863159 0.0
0.0876902 0.0888064 0.0
0.0878009 0.0945756 0.0
0.0879159 0.0909472 0.0
0.0871939 0.0984085 0.0
0.0834009 0.112376 0.0
0.114896 0.0752597 0.0
0.116486 0.0795206 0.0
0.116531 0.0793403 0.0
0.116605 0.0776222 0.0
0.113345 0.0738272 0.0
0.112002 0.0735202 0.0
0.104958 0.0755011 0.0
0.108372 0.074985 0.0
0.116538 0.080616 0.0
0.116549 0.0804764 0.0
0.115834 0.0763164 0.0
0.113081 0.0738128 0.0
0.114684 0.0747742 0.0
0 0.0816696 0.0
0.116049 0.0816053 0.0
0.116062 0.081502 0.0
0.11667 0.0793357 0.0
0.116757 0.079122 0.0
0.116879 0.0785491 0.0
0.112042 0.0738547 0.0
0.111343 0.0746863 0.0
0.0819595 0.113511 0.0
0.0809955 0.116164 0.0
0.0690305 0.118178 0.0
0.0706108 0.119924 0.0
0.067013 0.114212 0.0
0.0682217 0.116856 0.0
0.0701029 0.10184 0.0
0.0777265 0.104637 0.0
0.0736934 0.102998 0.0
0.0681954 0.110628 0.0
0.06864 0.106412 0.0
0.0683873 0.113847 0.0
0.0785781 0.119476 0.0
0.0792082 0.11829 0.0
0.0800476 0.116245 0.0
0.0716529 0.120731 0.0
0.073697 0.121467 0.0
0.0750306 0.121219 0.0
0.0771093 0.120428 0.0
0.0864447 0.102715 0.0
0.0834456 0.106092 0.0
0.0968814 0.0856343 0.0
0.0937377 0.0887074 0.0
0.0897806 0.099822 0.0
0.0930826 0.0964356 0.0
0.0957523 0.0936724 0.0
0.100735 0.0794558 0.0
0.101266 0.0828388 0.0
0.105059 0.0775625 0.0