# vtk DataFile Version 2.0
Vtkoutput example
ASCII

DATASET UNSTRUCTURED_GRID
POINTS 3357 float
0 0 0.0
0 0.002 0.0
0.002 0 0.0
0 0.004 0.0
0.002 0.003 0.0
0.00266667 0.00133333 0.0
0.006 0 0.0
0.004 0 0.0
0.008 0 0.0
0 0.006 0.0
0.01 0 0.0
0.0016 0.0048 0.0
0.00366667 0.00316667 0.0
0.00666667 0.00166667 0.0
0.0045 0.0015 0.0
0.00857143 0.00142857 0.0
0.00133333 0.00666667 0.0
0 0.008 0.0
0.0105 0.0015 0.0
0.012 0 0.0
0.00285714 0.00714286 0.0
0.004 0.005 0.0
0.0075 0.003 0.0
0.00533333 0.00333333 0.0
0.00933333 0.00311111 0.0
0.0112 0.0028 0.0
0.00142857 0.00857143 0.0
0 0.01 0.0
0.014 0 0.0
0.016 0 0.0
0.0130909 0.00254545 0.0
0.0116364 0.00436364 0.0
0.0045 0.0075 0.0
0.003 0.009 0.0
0.006 0.006 0.0
0.0075 0.0045 0.0
0.0056 0.0084 0.0
0.0101818 0.00509091 0.0
0.0015 0.0105 0.0
0 0.012 0.0
0.018 0 0.0
0.0166154 0.00138462 0.0
0.0138462 0.00415385 0.0
0.0145455 0.00145455 0.0
0.0124615 0.00553846 0.0
0.0042 0.0098 0.0
0.0028 0.0112 0.0
0.00727273 0.00763636 0.0
0.00872727 0.00636364 0.0
0.008 0.009 0.0
0.00581818 0.0101818 0.0
0.0110769 0.00692308 0.0
0.00145455 0.0127273 0.0
0 0.014 0.0
0.00290909 0.0130909 0.0
0.02 0 0.0
0.0185714 0.00142857 0.0
0.0171429 0.00285714 0.0
0.0142857 0.00571429 0.0
0.0153846 0.00415385 0.0
0.0128571 0.00714286 0.0
0.00533333 0.012 0.0
0.00969231 0.00830769 0.0
0.0084 0.0105 0.0
0.00692308 0.0110769 0.0
0.0117333 0.00933333 0.0
0.00145455 0.0145455 0.0
0 0.016 0.0
0.00307692 0.0152308 0.0
0.00415385 0.0138462 0.0
0.00571429 0.0142857 0.0
0.022 0 0.0
0.0205333 0.00133333 0.0
0.01925 0.00275 0.0
0.017875 0.004125 0.0
0.015125 0.006875 0.0
0.0165 0.0055 0.0
0.01375 0.00825 0.0
0.00714286 0.0128571 0.0
0.0102667 0.0106667 0.0
0.0088 0.012 0.0
0.0118914 0.0115258 0.0
0.0136331 0.0103174 0.0
0.00153846 0.0166154 0.0
0 0.018 0.0
0.00285714 0.0171429 0.0
0.006875 0.015125 0.0
0.0055 0.0165 0.0
0.024 0 0.0
0.0228881 0.00171629 0.0
0.0215131 0.00309129 0.0
0.0201381 0.00446629 0.0
0.0157091 0.00853956 0.0
0.0183105 0.00577303 0.0
0.0171788 0.00744466 0.0
0.0201209 0.00604606 0.0
0.0156286 0.00995574 0.0
0.00825 0.01375 0.0
0.0105763 0.0126865 0.0
0.0119878 0.0135694 0.0
0.0135162 0.0123848 0.0
0.0148855 0.0114546 0.0
0.00840082 0.0156792 0.0
0.00142857 0.0185714 0.0
0 0.02 0.0
0.00275 0.01925 0.0
0.004125 0.017875 0.0
0.00595599 0.01854 0.0
0.00733099 0.017165 0.0
0.026 0 0.0
0.0248313 0.00179442 0.0
0.0237762 0.00343257 0.0
0.023189 0.00532196 0.0
0.0217137 0.00549507 0.0
0.017624 0.00959406 0.0
0.0188968 0.00744381 0.0
0.0214992 0.0070393 0.0
0.0187497 0.010617 0.0
0.0169425 0.0111494 0.0
0.0108859 0.0147063 0.0
0.0120841 0.015613 0.0
0.0133993 0.0144523 0.0
0.0150183 0.0137492 0.0
0.0166374 0.0130461 0.0
0.00979814 0.0162027 0.0
0.00915217 0.0178265 0.0
0.001375 0.020625 0.0
0.00320599 0.02129 0.0
0 0.022 0.0
0.00549648 0.0202475 0.0
0.00709947 0.0198926 0.0
0.00870247 0.0195376 0.0
0.028 0 0.0
0.03 0 0.0
0.0267341 0.0017943 0.0
0.0256627 0.00358883 0.0
0.0246643 0.00514886 0.0
0.0237419 0.00659211 0.0
0.0196274 0.00911868 0.0
0.0212848 0.00858354 0.0
0.0226686 0.00801262 0.0
0.0198754 0.0116399 0.0
0.0182564 0.012343 0.0
0.0111955 0.0167261 0.0
0.0132824 0.0165197 0.0
0.0150396 0.015459 0.0
0.0182776 0.0140529 0.0
0.0166586 0.0147559 0.0
0.010187 0.0193364 0.0
0.00824296 0.0212451 0.0
0.0115046 0.0187433 0.0
0.00503697 0.0219551 0.0
0.00183099 0.022665 0.0
0.00366197 0.0233301 0.0
0 0.024 0.0
0.00686796 0.0226201 0.0
0.0100543 0.021903 0.0
0.032 0 0.0
0.0287256 0.00181759 0.0
0.0307216 0.00184857 0.0
0.0274682 0.0035886 0.0
0.026494 0.00538325 0.0
0.0255523 0.00686514 0.0
0.0244523 0.00796514 0.0
0.0214945 0.0109369 0.0
0.0234768 0.00968762 0.0
0.0218914 0.012777 0.0
0.019902 0.0137772 0.0
0.0131672 0.0185577 0.0
0.0149916 0.0175584 0.0
0.0166798 0.0164658 0.0
0.0182988 0.0157627 0.0
0.0115538 0.0212378 0.0
0.00900411 0.023396 0.0
0.0130533 0.0205725 0.0
0.00549296 0.0239951 0.0
0.00183087 0.0245759 0.0
0.00366173 0.0251518 0.0
0 0.026 0.0
0.00732394 0.0246601 0.0
0.0121081 0.0226801 0.0
0.0105054 0.0239413 0.0
0.034 0 0.0
0.032686 0.00179445 0.0
0.036 0 0.0
0.0294513 0.00363519 0.0
0.0314431 0.00369715 0.0
0.0284825 0.00545313 0.0
0.0273254 0.00717766 0.0
0.0264404 0.00858143 0.0
0.0252987 0.00969686 0.0
0.0246029 0.0109985 0.0
0.0233729 0.0115886 0.0
0.0233002 0.0132658 0.0
0.0215475 0.0152115 0.0
0.0199338 0.016342 0.0
0.0149906 0.0196595 0.0
0.0167007 0.0185971 0.0
0.0183201 0.0174725 0.0
0.00915493 0.0253252 0.0
0.0144209 0.0213989 0.0
0.00558672 0.025986 0.0
0.00186212 0.026569 0.0
0.00372424 0.027138 0.0
0.0138913 0.02346 0.0
0 0.028 0.0
0.00744896 0.026648 0.0
0.0128254 0.0246021 0.0
0.0109565 0.0259795 0.0
0.038 0 0.0
0.0346096 0.00188902 0.0
0.033372 0.0035889 0.0
0.0364971 0.0018889 0.0
0.04 0 0.0
0.021574 0.0173488 0.0
0.0226852 0.0164574 0.0
0.0301769 0.00545278 0.0
0.0321647 0.00554572 0.0
0.0289365 0.00717719 0.0
0.0281567 0.00897208 0.0
0.0273056 0.0102535 0.0
0.0263799 0.0114486 0.0
0.0252513 0.0122403 0.0
0.0250221 0.0138632 0.0
0.0241667 0.0152689 0.0
0.042 0 0.0
0.0199369 0.0188928 0.0
0.0167761 0.0214329 0.0
0.0184099 0.0196358 0.0
0.0093112 0.02731 0.0
0.0156745 0.02424 0.0
0.017156 0.0230515 0.0
0.00558635 0.0277071 0.0
0.00190172 0.0285655 0.0
0.00380345 0.029131 0.0
0.014193 0.0254285 0.0
0 0.03 0.0
0.00744847 0.0282761 0.0
0.0127115 0.0266169 0.0
0.0111255 0.027955 0.0
0.0384899 0.00194054 0.0
0.0352192 0.00377804 0.0
0.0340579 0.00538335 0.0
0.0371532 0.00367681 0.0
0.0403712 0.00194066 0.0
0.0216006 0.0194861 0.0
0.0230821 0.0182976 0.0
0.0245636 0.0171091 0.0
0.0324955 0.00727085 0.0
0.0309026 0.00727037 0.0
0.0296706 0.00897149 0.0
0.0289585 0.0107028 0.0
0.0281569 0.0118986 0.0
0.0271297 0.0128919 0.0
0.0265874 0.0144063 0.0
0.0260451 0.0159206 0.0
0.044 0 0.0
0.0423405 0.00189446 0.0
0.046 0 0.0
0.0201191 0.0206745 0.0
0.0186375 0.021863 0.0
0.0214903 0.0214344 0.0
0.048 0 0.0
0.00909521 0.0291693 0.0
0.0158565 0.0258608 0.0
0.0183238 0.0245691 0.0
0.00570517 0.0296965 0.0
0.00190185 0.0304684 0.0
0.0038037 0.0309367 0.0
0.0143293 0.0269894 0.0
0 0.032 0.0
0.0076069 0.030262 0.0
0.0127107 0.0279983 0.0
0.0108674 0.0297868 0.0
0.0389798 0.00388108 0.0
0.0358288 0.00566706 0.0
0.0344589 0.00739478 0.0
0.0374912 0.00566669 0.0
0.0407423 0.00388133 0.0
0.0229852 0.0204206 0.0
0.0247827 0.0190728 0.0
0.0262251 0.0182306 0.0
0.0331171 0.00908188 0.0
0.0316255 0.00908131 0.0
0.0303787 0.0107022 0.0
0.0297554 0.0124228 0.0
0.0290081 0.0135436 0.0
0.0280804 0.0151059 0.0
0.0271528 0.0166682 0.0
0.0443319 0.00196508 0.0
0.042681 0.00378891 0.0
0.0463063 0.00193254 0.0
0.0481805 0.00193254 0.0
0.020576 0.0231714 0.0
0.0228615 0.0221943 0.0
0.05 0 0.0
0.00950862 0.0308275 0.0
0.0160385 0.0274815 0.0
0.0175181 0.0269822 0.0
0.0208673 0.0246613 0.0
0.0189976 0.0264829 0.0
0.00570555 0.0314051 0.0
0.00186252 0.0324425 0.0
0.00372504 0.0328849 0.0
0.0144656 0.0285503 0.0
0 0.034 0.0
0.00745008 0.0321586 0.0
0.012611 0.0303943 0.0
0.0113429 0.0313729 0.0
0.0394697 0.00582162 0.0
0.0350653 0.00921873 0.0
0.0364384 0.00755607 0.0
0.0379882 0.00755558 0.0
0.0411135 0.00582199 0.0
0.0243698 0.0213552 0.0
0.0264834 0.019848 0.0
0.0276087 0.0182949 0.0
0.0337151 0.0108242 0.0
0.0323211 0.0108235 0.0
0.031386 0.0124942 0.0
0.0306227 0.0138415 0.0
0.0298593 0.0151887 0.0
0.028734 0.0167418 0.0
0.0446638 0.00393017 0.0
0.0432967 0.0055681 0.0
0.0466126 0.00386508 0.0
0.0483611 0.00386508 0.0
0.0501573 0.00190862 0.0
0.0242328 0.0229542 0.0
0.0225145 0.0244798 0.0
0.0255637 0.0240314 0.0
0.052 0 0.0
0.00950924 0.0323418 0.0
0.0184865 0.0280686 0.0
0.0162205 0.0291023 0.0
0.0219821 0.0260605 0.0
0.0206592 0.0276044 0.0
0.00558756 0.0333274 0.0
0.00195134 0.0343618 0.0
0.00383307 0.0348793 0.0
0.0143545 0.0310019 0.0
0 0.036 0.0
0.00745008 0.0337699 0.0
0.0131657 0.031915 0.0
0.0111091 0.0332187 0.0
0.0399596 0.00776215 0.0
0.0356545 0.0109907 0.0
0.0384738 0.00940089 0.0
0.037034 0.00940148 0.0
0.0414846 0.00776266 0.0
0.0265931 0.0225918 0.0
0.0276224 0.0211523 0.0
0.0294907 0.0182041 0.0
0.0286518 0.0197128 0.0
0.0349814 0.0127619 0.0
0.0330166 0.0125656 0.0
0.0325138 0.0143087 0.0
0.0324896 0.0158617 0.0
0.0307106 0.0168338 0.0
0.0433621 0.00757783 0.0
0.0449957 0.00589525 0.0
0.0469189 0.00579762 0.0
0.0485416 0.00579762 0.0
0.0503147 0.00381723 0.0
0.0521443 0.00201143 0.0
0.0245343 0.0254709 0.0
0.0273434 0.0244388 0.0
0.0265978 0.026526 0.0
0.054 0 0.0
0.0541223 0.00200453 0.0
0.023975 0.0269617 0.0
0.0093126 0.0342124 0.0
0.0197315 0.0291667 0.0
0.0179754 0.0296543 0.0
0.0164793 0.0310357 0.0
0.0224756 0.0283499 0.0
0.0214462 0.0297895 0.0
0.0057496 0.0353189 0.0
0.00191666 0.0363379 0.0
0.00383332 0.0366757 0.0
0.0149885 0.032457 0.0
0 0.038 0.0
0.00780535 0.0354471 0.0
0.0128943 0.033736 0.0
0.0143199 0.0339896 0.0
0.0111091 0.0346391 0.0
0.0404334 0.00963908 0.0
0.0367357 0.0123882 0.0
0.0389503 0.0112114 0.0
0.0422815 0.00941077 0.0
0.0282676 0.0225481 0.0
0.0294525 0.0214586 0.0
0.0315616 0.0184784 0.0
0.030507 0.0199685 0.0
0.0349111 0.0143087 0.0
0.0344076 0.01605 0.0
0.0331933 0.0175815 0.0
0.0436914 0.00941018 0.0
0.0453272 0.0078584 0.0
0.0472249 0.00772825 0.0
0.050472 0.00572585 0.0
0.048722 0.00772825 0.0
0.0522885 0.00402285 0.0
0.0524328 0.00603428 0.0
0.0542447 0.00400906 0.0
0.0289129 0.0239439 0.0
0.0252343 0.0274191 0.0
0.0280533 0.0263212 0.0
0.0272057 0.0283388 0.0
0.056 0 0.0
0.0559774 0.0040088 0.0
0.0559887 0.0020044 0.0
0.0242827 0.0291082 0.0
0.00957566 0.0361965 0.0
0.01989 0.0306465 0.0
0.0182641 0.0315811 0.0
0.0168113 0.032999 0.0
0.0231252 0.0303993 0.0
0.0216111 0.0312218 0.0
0.00574998 0.0370136 0.0
0.00188862 0.0383166 0.0
0.00383307 0.0384721 0.0
0.0157454 0.0342432 0.0
0 0.04 0.0
0.00766664 0.0373514 0.0
0.013072 0.0353876 0.0
0.0146795 0.0354874 0.0
0.0114127 0.0366179 0.0
0.040903 0.0114991 0.0
0.0382026 0.0130227 0.0
0.0373932 0.0141082 0.0
0.0399752 0.0126738 0.0
0.0427217 0.0112267 0.0
0.0302194 0.0231959 0.0
0.0312279 0.0213617 0.0
0.0323855 0.0200706 0.0
0.0363646 0.0163056 0.0
0.0351032 0.0177921 0.0
0.0348602 0.0194628 0.0
[...]
POINT_DATA 3357
VECTORS u float
5.05046e-33 7.27011e-33 0.0
1.00521e-32 0.0155949 0.0
0.00688207 1.45383e-32 0.0
9.86698e-33 0.0312474 0.0
0.00695877 0.0234219 0.0
0.00918532 0.0104016 0.0
0.0206637 1.42972e-32 0.0
0.0137623 1.44679e-32 0.0
0.0276165 1.40208e-32 0.0
9.56678e-33 0.0470194 0.0
0.0346511 1.36788e-32 0.0
0.00567295 0.0375293 0.0
0.0127742 0.0247615 0.0
0.0230576 0.0131291 0.0
0.0155232 0.0117371 0.0
0.0296991 0.0113604 0.0
0.00493191 0.052359 0.0
9.0748e-33 0.0630419 0.0
0.0365378 0.012068 0.0
0.0417748 1.3225e-32 0.0
0.0105969 0.056169 0.0
0.014281 0.0392348 0.0
0.0262119 0.0237523 0.0
0.0186246 0.026174 0.0
0.0327296 0.0248694 0.0
0.0393558 0.0227003 0.0
0.00546176 0.0676301 0.0
8.57992e-33 0.079272 0.0
0.0491028 1.26552e-32 0.0
0.0566328 1.1986e-32 0.0
0.0461168 0.0209341 0.0
0.0415097 0.035488 0.0
0.0167656 0.0591842 0.0
0.011599 0.0711412 0.0
0.021746 0.0473867 0.0
0.0266217 0.0356656 0.0
0.0213048 0.0666377 0.0
0.0365234 0.0409761 0.0
0.00604169 0.0833716 0.0
7.8941e-33 0.0958438 0.0
0.0645496 1.1033e-32 0.0
0.0592224 0.0119477 0.0
0.0495684 0.0344843 0.0
0.0512538 0.0121127 0.0
0.0452049 0.0453906 0.0
0.0165838 0.0777811 0.0
0.0115319 0.0892341 0.0
0.0272253 0.0607936 0.0
0.0318738 0.0508713 0.0
0.0309225 0.0721103 0.0
0.0232582 0.0812668 0.0
0.040973 0.0562011 0.0
0.0062823 0.102005 0.0
7.04059e-33 0.11289 0.0
0.0127116 0.105149 0.0
0.0727479 1.02071e-32 0.0
0.0669446 0.0126384 0.0
0.061605 0.0247095 0.0
0.0522111 0.047695 0.0
0.0553817 0.0351014 0.0
0.0479252 0.0588611 0.0
0.0224485 0.0962275 0.0
0.0368607 0.0669917 0.0
0.033781 0.0846282 0.0
0.0283358 0.0889228 0.0
0.0457264 0.0764192 0.0
0.0067493 0.11762 0.0
6.10315e-33 0.130478 0.0
0.0146433 0.123743 0.0
0.0187014 0.111751 0.0
0.0261406 0.115933 0.0
0.0814273 8.88908e-33 0.0
0.0751016 0.0122186 0.0
0.0700531 0.0246134 0.0
0.0651293 0.0360521 0.0
0.0564035 0.0579554 0.0
0.0605756 0.0471687 0.0
0.0524252 0.0686233 0.0
0.0310163 0.103989 0.0
0.041408 0.0867702 0.0
0.0370412 0.0972961 0.0
0.0491546 0.0949576 0.0
0.0545461 0.0859917 0.0
0.00768504 0.136007 0.0
5.06524e-33 0.148644 0.0
0.0145593 0.140855 0.0
0.0322337 0.123409 0.0
0.0271788 0.135223 0.0
0.0907667 7.66769e-33 0.0
0.0856452 0.0165677 0.0
0.0798199 0.0289054 0.0
0.0746465 0.0406389 0.0
0.060528 0.0726017 0.0
0.0680682 0.0508738 0.0
0.0651145 0.0644871 0.0
0.0758509 0.054962 0.0
0.0620425 0.0846085 0.0
0.0368143 0.111908 0.0
0.0453715 0.103959 0.0
0.0528295 0.112461 0.0
0.0572661 0.103497 0.0
0.0613748 0.0967253 0.0
0.040174 0.128804 0.0
0.00772929 0.15396 0.0
3.86231e-33 0.167525 0.0
0.0152703 0.160386 0.0
0.0216116 0.14754 0.0
0.0320657 0.154019 0.0
0.0372207 0.141782 0.0
0.100882 6.10636e-33 0.0
0.0950341 0.0182369 0.0
0.0904736 0.0339023 0.0
0.0887927 0.0517275 0.0
0.0822747 0.0515988 0.0
0.0695834 0.0836212 0.0
0.0720862 0.0661757 0.0
0.0828033 0.0657128 0.0
0.0759653 0.0941384 0.0
0.0693587 0.0963351 0.0
0.0500324 0.121515 0.0
0.0572136 0.130269 0.0
0.0606584 0.121254 0.0
0.0662291 0.116661 0.0
0.0716746 0.112415 0.0
0.0477633 0.134198 0.0
0.0475325 0.148381 0.0
0.00809598 0.173559 0.0
0.0193385 0.180036 0.0
2.3902e-33 0.187227 0.0
0.0315598 0.170012 0.0
0.0401886 0.167068 0.0
0.0482501 0.163969 0.0
0.111799 4.39321e-33 0.0
0.12373 2.49425e-33 0.0
0.104898 0.0191503 0.0
0.099812 0.0371588 0.0
0.095646 0.0518464 0.0
0.0923637 0.0646911 0.0
0.0772577 0.0820283 0.0
0.0835871 0.0795461 0.0
0.0890188 0.0765808 0.0
0.0825082 0.104977 0.0
0.0770737 0.108555 0.0
0.0553214 0.13945 0.0
0.0647524 0.139295 0.0
0.0702048 0.131594 0.0
0.0809866 0.123655 0.0
0.0756418 0.127407 0.0
0.0559238 0.16278 0.0
0.049362 0.180223 0.0
0.0614514 0.157986 0.0
0.0314157 0.186844 0.0
0.011761 0.193826 0.0
0.0242435 0.200688 0.0
1.08365e-33 0.207743 0.0
0.0438089 0.193574 0.0
0.0615123 0.187156 0.0
0.136826 3.78465e-34 0.0
0.116096 0.0205538 0.0
0.128367 0.0222327 0.0
0.109393 0.0390587 0.0
0.105083 0.0568673 0.0
0.101346 0.070552 0.0
0.0971666 0.07932 0.0
0.0882003 0.10153 0.0
0.0948979 0.0939249 0.0
0.093596 0.119165 0.0
0.0873065 0.124078 0.0
0.0694382 0.157407 0.0
0.0754623 0.150115 0.0
0.0802518 0.142499 0.0
0.0855103 0.138804 0.0
0.0682851 0.181293 0.0
0.0589069 0.201695 0.0
0.0746056 0.175904 0.0
0.0371998 0.207589 0.0
0.012797 0.213748 0.0
0.0261575 0.219817 0.0
4.8626e-34 0.229244 0.0
0.0507598 0.214507 0.0
0.0760246 0.195451 0.0
0.0699779 0.207558 0.0
0.151283 1.81811e-33 0.0
0.141595 0.0230303 0.0
0.167129 4.08551e-33 0.0
0.120858 0.0419615 0.0
0.133453 0.0454119 0.0
0.115976 0.0609436 0.0
0.110777 0.0773797 0.0
0.107643 0.0899574 0.0
0.103511 0.098308 0.0
0.102319 0.109241 0.0
0.0977312 0.111605 0.0
0.101075 0.127241 0.0
0.0983098 0.140487 0.0
0.0944114 0.147056 0.0
0.0819434 0.16904 0.0
0.0868006 0.16163 0.0
0.0908538 0.153978 0.0
0.0649683 0.221693 0.0
0.0848281 0.184757 0.0
0.041149 0.228699 0.0
0.0140958 0.235434 0.0
0.0288076 0.241661 0.0
0.0895603 0.204447 0.0
2.1027e-33 0.251744 0.0
0.0561317 0.235822 0.0
0.0872411 0.215107 0.0
0.0794524 0.228822 0.0
0.184438 6.63e-33 0.0
0.155859 0.025811 0.0
0.146713 0.046999 0.0
0.171148 0.0274042 0.0
0.203395 8.91765e-33 0.0
0.105247 0.160029 0.0
0.107331 0.155009 0.0
0.125972 0.0642729 0.0
0.138869 0.0694701 0.0
0.11971 0.0810327 0.0
0.11708 0.0985953 0.0
0.114295 0.109529 0.0
0.111617 0.118806 0.0
0.107748 0.123075 0.0
0.110407 0.137962 0.0
0.110349 0.14837 0.0
0.223874 1.14645e-32 0.0
0.103428 0.169931 0.0
0.0977102 0.187697 0.0
0.0989497 0.173729 0.0
0.0716725 0.243118 0.0
0.103218 0.213206 0.0
0.106783 0.2033 0.0
0.0441522 0.247828 0.0
0.0156296 0.258175 0.0
0.0318934 0.264586 0.0
0.0992444 0.224069 0.0
3.62379e-33 0.27536 0.0
0.0600787 0.253996 0.0
0.0939995 0.235978 0.0
0.0873352 0.250256 0.0
0.188799 0.0300427 0.0
0.160755 0.0525709 0.0
0.152096 0.0719131 0.0
0.176735 0.0543856 0.0
0.206919 0.031747 0.0
0.113574 0.179405 0.0
0.115583 0.172959 0.0
0.118052 0.166822 0.0
0.141827 0.0917926 0.0
0.13146 0.0873534 0.0
0.125549 0.103154 0.0
0.123666 0.119781 0.0
0.12136 0.129488 0.0
0.118137 0.135778 0.0
0.119156 0.148719 0.0
0.120879 0.161177 0.0
0.246037 1.37657e-32 0.0
0.227401 0.0328201 0.0
0.269739 1.59494e-32 0.0
0.111536 0.186424 0.0
0.109259 0.194599 0.0
0.12179 0.196923 0.0
0.294961 1.76091e-32 0.0
0.0757725 0.263929 0.0
0.111979 0.229372 0.0
0.120467 0.219458 0.0
0.0487658 0.270909 0.0
0.0167874 0.280887 0.0
0.0341444 0.286335 0.0
0.106807 0.24033 0.0
5.30595e-33 0.30005 0.0
0.0662383 0.277281 0.0
0.099443 0.250856 0.0
0.0923765 0.270895 0.0
0.193107 0.0609381 0.0
0.165712 0.0802433 0.0
0.155739 0.0996121 0.0
0.17967 0.0845152 0.0
0.210329 0.0641925 0.0
0.124226 0.191867 0.0
0.126436 0.185744 0.0
0.129713 0.183667 0.0
0.147136 0.116494 0.0
0.137403 0.111041 0.0
0.131623 0.125128 0.0
0.130792 0.141519 0.0
0.129051 0.150092 0.0
0.128239 0.161894 0.0
0.128436 0.173104 0.0
0.249741 0.0358499 0.0
0.230727 0.0662594 0.0
0.273411 0.036958 0.0
0.297188 0.0382745 0.0
0.125779 0.210299 0.0
0.132112 0.207577 0.0
0.321359 1.92879e-32 0.0
0.0843542 0.283438 0.0
0.121088 0.246387 0.0
0.128671 0.242521 0.0
0.135393 0.225026 0.0
0.135258 0.239181 0.0
0.0520459 0.291625 0.0
0.0176695 0.305508 0.0
0.0358525 0.310856 0.0
0.115131 0.257174 0.0
6.93911e-33 0.325915 0.0
0.0696694 0.300463 0.0
0.109059 0.277744 0.0
0.102229 0.289577 0.0
0.197582 0.0925867 0.0
0.160995 0.12617 0.0
0.171038 0.108651 0.0
0.184031 0.114171 0.0
0.21381 0.0972951 0.0
0.13508 0.204939 0.0
0.13764 0.199857 0.0
0.136349 0.190884 0.0
0.152576 0.140844 0.0
0.143507 0.134498 0.0
0.140122 0.149756 0.0
0.138231 0.161003 0.0
0.137439 0.171313 0.0
0.136206 0.181389 0.0
0.253205 0.0723013 0.0
0.237034 0.0988634 0.0
0.276746 0.074368 0.0
0.299019 0.0768489 0.0
0.323421 0.0390482 0.0
0.142974 0.218905 0.0
0.143224 0.22758 0.0
0.156025 0.234158 0.0
0.348882 2.04948e-32 0.0
0.0892144 0.302003 0.0
0.14121 0.25446 0.0
0.131193 0.263758 0.0
0.150339 0.240788 0.0
0.15235 0.253057 0.0
0.0545596 0.316052 0.0
0.0197796 0.33053 0.0
0.0394653 0.337022 0.0
0.12617 0.284728 0.0
8.44713e-33 0.352898 0.0
0.0737531 0.32092 0.0
0.120466 0.295519 0.0
0.107202 0.312258 0.0
0.202012 0.12502 0.0
0.16638 0.152631 0.0
0.188768 0.143973 0.0
0.176338 0.137098 0.0
0.216929 0.131004 0.0
0.15202 0.225644 0.0
0.149313 0.217882 0.0
0.145058 0.200132 0.0
0.14713 0.210008 0.0
0.163724 0.171839 0.0
0.15026 0.158746 0.0
0.150147 0.176469 0.0
0.153448 0.193899 0.0
0.146425 0.193504 0.0
0.237138 0.134558 0.0
0.256311 0.109377 0.0
0.279716 0.112231 0.0
0.300499 0.115739 0.0
0.32502 0.0783145 0.0
0.350844 0.0421982 0.0
0.160196 0.24313 0.0
0.167307 0.246383 0.0
0.178323 0.261521 0.0
0.377254 2.11161e-32 0.0
0.378926 0.0426939 0.0
0.167808 0.255274 0.0
0.0932853 0.325989 0.0
0.156915 0.267491 0.0
0.147402 0.27087 0.0
0.143759 0.285498 0.0
0.168977 0.264258 0.0
0.172958 0.276388 0.0
0.0598981 0.342313 0.0
0.0206161 0.357428 0.0
0.0416487 0.361601 0.0
0.13932 0.30178 0.0
9.84644e-33 0.380978 0.0
0.081581 0.342991 0.0
0.126302 0.31827 0.0
0.140984 0.32064 0.0
0.112686 0.33049 0.0
0.2065 0.156792 0.0
0.175659 0.177735 0.0
0.192894 0.173493 0.0
0.224578 0.162094 0.0
0.159572 0.234339 0.0
0.159213 0.231426 0.0
0.156408 0.216001 0.0
0.157011 0.223999 0.0
0.164869 0.190996 0.0
0.164873 0.208559 0.0
0.161567 0.217516 0.0
0.239631 0.168506 0.0
0.259354 0.146808 0.0
0.282494 0.150492 0.0
0.326345 0.117817 0.0
0.301707 0.154974 0.0
0.352178 0.0845386 0.0
0.353317 0.126964 0.0
0.380132 0.0855323 0.0
0.171256 0.250963 0.0
0.178255 0.263748 0.0
0.183971 0.267284 0.0
0.196726 0.281065 0.0
0.406188 2.15184e-32 0.0
0.405048 0.0860023 0.0
0.40589 0.0430062 0.0
0.185945 0.27669 0.0
0.102291 0.352189 0.0
0.168067 0.2832 0.0
0.161587 0.292321 0.0
0.158224 0.308233 0.0
0.188997 0.286223 0.0
0.184976 0.291475 0.0
0.0630332 0.365548 0.0
0.0213993 0.385384 0.0
0.0436654 0.387098 0.0
0.155713 0.323275 0.0
1.13177e-32 0.410076 0.0
0.0847385 0.369326 0.0
0.135379 0.339251 0.0
0.15209 0.339598 0.0
0.123168 0.356595 0.0
0.2109 0.189049 0.0
0.187491 0.195263 0.0
0.182142 0.205031 0.0
0.202353 0.201785 0.0
0.228968 0.195184 0.0
0.172403 0.252985 0.0
0.166928 0.242615 0.0
0.16658 0.238165 0.0
0.177796 0.2266 0.0
0.173464 0.234436 0.0
0.177471 0.251895 0.0
0.248648 0.20115 0.0
0.285052 0.187793 0.0
0.261733 0.183234 0.0
0.327227 0.157543 0.0
0.302457 0.19284 0.0
0.34783 0.160171 0.0
0.375751 0.128758 0.0
0.408512 0.129355 0.0
0.391408 0.150482 0.0
0.19203 0.278613 0.0
0.185835 0.273097 0.0
0.206361 0.297744 0.0
0.198569 0.285514 0.0
0.204176 0.291868 0.0
0.207025 0.291633 0.0
0.216553 0.301255 0.0
0.435428 2.12188e-32 0.0
0.434621 0.0430598 0.0
0.433407 0.0860905 0.0
0.205573 0.296943 0.0
0.106712 0.372807 0.0
0.179688 0.299527 0.0
0.172949 0.309618 0.0
0.170285 0.325236 0.0
0.207768 0.307027 0.0
0.197551 0.307132 0.0
0.065919 0.389642 0.0
0.0233781 0.414576 0.0
0.0474282 0.416087 0.0
0.165931 0.357256 0.0
0.172379 0.344147 0.0
1.24088e-32 0.440183 0.0
0.0883835 0.391964 0.0
0.144488 0.361092 0.0
0.128202 0.3758 0.0
0.431707 0.12925 0.0
0.189021 0.233812 0.0
0.215116 0.222207 0.0
0.202706 0.233596 0.0
0.23285 0.228881 0.0
0.181149 0.267259 0.0
0.19378 0.286965 0.0
0.181775 0.265498 0.0
0.17802 0.261327 0.0
0.186165 0.254544 0.0
0.187056 0.272229 0.0
0.25247 0.236038 0.0
0.279447 0.226721 0.0
0.295816 0.247335 0.0
0.327706 0.195769 0.0
0.311088 0.230312 0.0
0.346838 0.199079 0.0
0.374568 0.171333 0.0
0.408451 0.172338 0.0
0.206469 0.302316 0.0
0.221776 0.317603 0.0
0.218386 0.30812 0.0
0.222277 0.308609 0.0
0.231086 0.314964 0.0
0.223309 0.308714 0.0
0.464432 2.05144e-32 0.0
0.463257 0.0428965 0.0
0.492945 1.92878e-32 0.0
0.461653 0.0858279 0.0
0.454799 0.128346 0.0
0.22583 0.317647 0.0
0.110438 0.399904 0.0
0.191758 0.316137 0.0
0.192667 0.349026 0.0
0.184792 0.327467 0.0
0.132599 0.402997 0.0
0.218411 0.32348 0.0
0.0715284 0.418432 0.0
0.0242954 0.443169 0.0
0.0487542 0.445755 0.0
0.171959 0.381869 0.0
0.187586 0.360353 0.0
1.32313e-32 0.471122 0.0
0.0954261 0.425725 0.0
0.155344 0.397204 0.0
0.450622 0.170977 0.0
0.42955 0.172007 0.0
0.196549 0.269734 0.0
0.200119 0.256008 0.0
0.219911 0.255689 0.0
0.23738 0.263413 0.0
0.256686 0.271419 0.0
0.190525 0.284978 0.0
0.206616 0.309096 0.0
0.192978 0.289825 0.0
0.195662 0.282492 0.0
0.197578 0.294428 0.0
0.28059 0.26418 0.0
0.312956 0.269119 0.0
0.328818 0.254009 0.0
0.345113 0.238232 0.0
0.327139 0.292776 0.0
0.400003 0.213598 0.0
0.370803 0.254459 0.0
0.372978 0.212758 0.0
0.42713 0.213623 0.0
0.224025 0.330011 0.0
0.233506 0.325307 0.0
0.235923 0.334716 0.0
0.238014 0.324539 0.0
0.244458 0.3295 0.0
0.246459 0.328664 0.0
0.242404 0.325729 0.0
0.520772 1.78563e-32 0.0
0.490085 0.0396297 0.0
0.489678 0.0800895 0.0
0.51766 0.0391105 0.0
0.487294 0.12028 0.0
0.547695 1.59966e-32 0.0
0.573552 1.38098e-32 0.0
0.598329 1.16178e-32 0.0
0.48459 0.160557 0.0
0.237542 0.333535 0.0
0.119774 0.42891 0.0
0.209472 0.364442 0.0
0.204262 0.333133 0.0
0.207269 0.348323 0.0
0.143652 0.431554 0.0
0.223726 0.3397 0.0
0.243338 0.346455 0.0
0.0734275 0.447921 0.0
0.0250111 0.472519 0.0
0.0501409 0.473486 0.0
0.177838 0.407944 0.0
0.194333 0.384953 0.0
0.216416 0.382733 0.0
1.4011e-32 0.502723 0.0
0.0983399 0.449602 0.0
0.16771 0.434051 0.0
0.256596 0.347629 0.0
0.474375 0.198359 0.0
0.446327 0.212521 0.0
0.208717 0.303191 0.0
0.207729 0.286383 0.0
0.220678 0.295477 0.0
0.282127 0.30195 0.0
0.266489 0.305252 0.0
0.234565 0.297966 0.0
0.252153 0.306187 0.0
0.220551 0.334234 0.0
0.23906 0.360778 0.0
0.202302 0.306619 0.0
0.204628 0.313184 0.0
0.210381 0.319323 0.0
0.304277 0.307715 0.0
0.321973 0.31952 0.0
0.353205 0.294284 0.0
0.341788 0.31641 0.0
0.379351 0.296544 0.0
0.397446 0.255458 0.0
0.441432 0.254258 0.0
0.42352 0.276307 0.0
0.248368 0.359193 0.0
0.264082 0.368885 0.0
0.252261 0.346637 0.0
0.254491 0.339265 0.0
0.276311 0.358997 0.0
0.270328 0.34942 0.0
0.263663 0.343802 0.0
0.544377 0.0384942 0.0
0.509888 0.117964 0.0
0.514064 0.078431 0.0
0.540428 0.0772696 0.0
0.505324 0.157745 0.0
0.568759 0.0371054 0.0
0.593682 0.0343231 0.0
0.621836 9.08288e-33 0.0
0.644082 6.6199e-33 0.0
0.720905 3.67308e-33 0.0
0.703516 1.00701e-33 0.0
0.684863 1.44239e-33 0.0
0.66511 4.10768e-33 0.0
0.615997 0.0327538 0.0
0.50069 0.19607 0.0
0.123062 0.451223 0.0
0.236639 0.37507 0.0
0.233481 0.359914 0.0
0.268025 0.364997 0.0
0.147177 0.452193 0.0
0.253959 0.365838 0.0
0.0753784 0.47401 0.0
0.025485 0.503897 0.0
0.0510393 0.504582 0.0
0.196237 0.453669 0.0
0.200561 0.410724 0.0
0.191688 0.426072 0.0
0.238516 0.391312 0.0
0.222551 0.401797 0.0
1.44226e-32 0.53493 0.0
0.100479 0.479708 0.0
0.125945 0.473777 0.0
0.175256 0.47252 0.0
0.288678 0.374297 0.0
0.477985 0.238543 0.0
0.222296 0.326653 0.0
0.239559 0.330929 0.0
0.294096 0.339744 0.0
0.27276 0.332379 0.0
0.255861 0.340283 0.0
0.21877 0.337646 0.0
0.237176 0.368282 0.0
0.256891 0.387654 0.0
0.218194 0.34045 0.0
0.221898 0.348215 0.0
0.230922 0.357528 0.0
0.46437 0.276607 0.0
0.316455 0.346327 0.0
0.340094 0.354667 0.0
0.365795 0.338332 0.0
0.403606 0.339811 0.0
0.405423 0.298094 0.0
0.436121 0.296365 0.0
0.265182 0.384599 0.0
0.283788 0.396437 0.0
0.283412 0.422983 0.0
0.270072 0.359146 0.0
0.284016 0.37923 0.0
0.280806 0.36148 0.0
0.296678 0.371896 0.0
0.283053 0.360173 0.0
0.767834 1.09014e-32 0.0
0.781392 1.3384e-32 0.0
0.565721 0.0758539 0.0
0.525608 0.154295 0.0
0.535966 0.1163 0.0
0.560801 0.11435 0.0
0.519232 0.192349 0.0
0.537913 0.172721 0.0
0.588281 0.0691149 0.0
0.611294 0.0674409 0.0
0.638179 0.0319002 0.0
0.737599 6.13297e-33 0.0
0.762102 0.0161296 0.0
0.753197 8.4613e-33 0.0
0.731969 0.0194981 0.0
0.659478 0.0294524 0.0
0.715736 0.0188505 0.0
0.697349 0.0258079 0.0
0.67839 0.0278506 0.0
0.63125 0.0645471 0.0
0.511918 0.230382 0.0
0.254733 0.384601 0.0
0.283318 0.381001 0.0
0.15054 0.473411 0.0
0.277025 0.390521 0.0
0.0765862 0.509143 0.0
0.102426 0.510474 0.0
0.315727 0.388313 0.0
0.315207 0.391924 0.0
0.0258331 0.535838 0.0
0.0517015 0.536261 0.0
0.200122 0.476787 0.0
0.221059 0.454364 0.0
0.216076 0.426893 0.0
0.266752 0.405932 0.0
0.251389 0.410264 0.0
0.240091 0.428245 0.0
1.46729e-32 0.567557 0.0
0.128031 0.5111 0.0
0.152776 0.503231 0.0
0.177753 0.501824 0.0
0.299337 0.397399 0.0
0.321229 0.405893 0.0
0.484522 0.273155 0.0
0.503912 0.268694 0.0
0.24555 0.363654 0.0
0.260611 0.374473 0.0
0.296449 0.37791 0.0
0.276487 0.369523 0.0
0.236621 0.375919 0.0
0.254906 0.403979 0.0
0.271978 0.420946 0.0
0.235406 0.377675 0.0
0.241757 0.388475 0.0
0.253199 0.396675 0.0
0.45807 0.315915 0.0
0.477115 0.312427 0.0
0.352286 0.376698 0.0
0.328384 0.388531 0.0
0.376594 0.379018 0.0
0.393812 0.400126 0.0
0.412805 0.37976 0.0
0.423056 0.339637 0.0
0.442041 0.337813 0.0
0.299512 0.427942 0.0
0.303027 0.409975 0.0
0.299004 0.455097 0.0
0.311331 0.454975 0.0
0.293203 0.378496 0.0
0.312776 0.40458 0.0
0.307871 0.38308 0.0
0.316667 0.388434 0.0
0.816455 2.12087e-32 0.0
0.777534 0.0153578 0.0
0.789948 0.0136543 0.0
0.805815 1.8779e-32 0.0
0.794195 1.59266e-32 0.0
0.58222 0.104298 0.0
0.575427 0.139881 0.0
0.555261 0.153072 0.0
0.535324 0.226048 0.0
0.549054 0.190178 0.0
0.771473 0.0294443 0.0
0.604825 0.10199 0.0
0.623432 0.0978808 0.0
0.652736 0.0596057 0.0
0.756123 0.033874 0.0
0.747731 0.0177425 0.0
0.726827 0.0364059 0.0
0.671996 0.057985 0.0
0.712414 0.0497255 0.0
0.689787 0.052357 0.0
0.642652 0.0886716 0.0
0.526917 0.263851 0.0
0.295779 0.409264 0.0
0.0776474 0.536224 0.0
0.103638 0.535744 0.0
0.313891 0.426748 0.0
0.335283 0.404555 0.0
0.342651 0.416308 0.0
0.0260761 0.566699 0.0
0.0521433 0.565343 0.0
0.22512 0.47636 0.0
0.202908 0.500396 0.0
0.291213 0.422355 0.0
0.245545 0.454603 0.0
0.26396 0.429476 0.0
1.44596e-32 0.6005 0.0
0.0261463 0.599207 0.0
0.129412 0.534751 0.0
0.154583 0.533416 0.0
0.179782 0.531754 0.0
0.328461 0.421032 0.0
0.350335 0.428752 0.0
0.518089 0.302266 0.0
0.495668 0.307328 0.0
0.313398 0.402643 0.0
0.266752 0.408215 0.0
0.281025 0.406345 0.0
0.299955 0.415309 0.0
0.248246 0.401044 0.0
0.268174 0.433013 0.0
0.293379 0.466979 0.0
0.266804 0.434332 0.0
0.255053 0.419713 0.0
0.259139 0.424935 0.0
0.275355 0.442262 0.0
0.463725 0.354388 0.0
0.351633 0.417506 0.0
0.328938 0.42646 0.0
0.37528 0.419825 0.0
0.408518 0.420487 0.0
0.437144 0.378173 0.0
0.324217 0.503777 0.0
0.32306 0.445464 0.0
0.333997 0.436301 0.0
0.330953 0.4925 0.0
0.343994 0.489982 0.0
0.352285 0.48408 0.0
0.327158 0.405761 0.0
0.347754 0.434234 0.0
0.341751 0.410596 0.0
0.834164 1.34116e-32 0.0
0.8262 2.40176e-32 0.0
0.82094 0.0109049 0.0
0.813523 0.0119096 0.0
0.785779 0.0290733 0.0
0.80058 0.0234034 0.0
0.597599 0.136967 0.0
0.584864 0.169174 0.0
0.568215 0.17462 0.0
0.551043 0.239013 0.0
0.560239 0.209218 0.0
0.778427 0.042013 0.0
0.762918 0.0485902 0.0
0.614688 0.131741 0.0
0.749317 0.0530246 0.0
0.633102 0.119543 0.0
0.663751 0.0880903 0.0
0.736209 0.0522856 0.0
0.72222 0.0669754 0.0
0.707533 0.082707 0.0
0.681166 0.079737 0.0
0.700421 0.0697859 0.0
0.654439 0.118926 0.0
0.541831 0.269143 0.0
0.249826 0.475733 0.0
0.0782336 0.563517 0.0
0.104365 0.561236 0.0
0.20509 0.529956 0.0
0.314156 0.448671 0.0
0.333826 0.4374 0.0
0.355485 0.420636 0.0
0.367374 0.433397 0.0
0.0522514 0.597499 0.0
0.0783789 0.595333 0.0
0.228181 0.498788 0.0
0.290367 0.445601 0.0
0.273734 0.468111 0.0
1.40772e-32 0.633383 0.0
0.026065 0.631747 0.0
0.0521344 0.629685 0.0
0.130386 0.565705 0.0
0.155621 0.56406 0.0
0.193516 0.555119 0.0
0.356225 0.442292 0.0
0.378269 0.448056 0.0
0.520519 0.325817 0.0
0.49738 0.345244 0.0
0.316185 0.440572 0.0
0.337234 0.467686 0.0
0.287369 0.443181 0.0
0.30472 0.452917 0.0
0.27015 0.445476 0.0
0.319984 0.515808 0.0
0.292796 0.479866 0.0
0.283495 0.470108 0.0
0.274043 0.458747 0.0
0.294767 0.482724 0.0
0.452597 0.384133 0.0
0.467263 0.388153 0.0
0.487763 0.381875 0.0
0.351511 0.457891 0.0
0.381158 0.461474 0.0
0.402948 0.460376 0.0
0.4314 0.418373 0.0
0.362986 0.545517 0.0
0.35716 0.555733 0.0
0.367415 0.467532 0.0
0.360376 0.476564 0.0
0.372571 0.540083 0.0
0.380729 0.531033 0.0
0.387469 0.523487 0.0
0.361744 0.435488 0.0
0.38216 0.466651 0.0
0.375418 0.440111 0.0
0.833871 0.0120201 0.0
0.827647 0.0173141 0.0
0.819461 0.0218344 0.0
0.807559 0.0325096 0.0
0.799776 0.0426678 0.0
0.792243 0.0410791 0.0