# vtk DataFile Version 2.0
Vtkoutput example
ASCII

DATASET UNSTRUCTURED_GRID
POINTS 3368 float
0.1 0.1 0.0
0.098 0.1 0.0
0.1 0.098 0.0
0.1 0.096 0.0
0.096 0.1 0.0
0.097 0.098 0.0
0.0985 0.097 0.0
0.0985 0.0955 0.0
0.1 0.094 0.0
0.094 0.1 0.0
0.092 0.1 0.0
0.0955 0.0985 0.0
0.09 0.1 0.0
0.096 0.096 0.0
0.0973333 0.0946667 0.0
0.0986667 0.0933333 0.0
0.1 0.092 0.0
0.088 0.1 0.0
0.0914286 0.0985714 0.0
0.0933333 0.0983333 0.0
0.094 0.0952222 0.0
0.0946667 0.0966667 0.0
0.0895 0.0985 0.0
0.0955 0.09375 0.0
0.0971429 0.0928571 0.0
0.0985 0.09125 0.0
0.1 0.09 0.0
0.086 0.1 0.0
0.0872727 0.0985455 0.0
0.0933333 0.0937778 0.0
0.091 0.097 0.0
0.0925 0.0955 0.0
0.0885455 0.0970909 0.0
0.0945682 0.0925114 0.0
0.097 0.091 0.0
0.0985 0.0895 0.0
0.1 0.088 0.0
0.084 0.1 0.0
0.0854545 0.0985455 0.0
0.0869091 0.0970909 0.0
0.0923636 0.0927273 0.0
0.0910909 0.0941818 0.0
0.0898182 0.0956364 0.0
0.0883636 0.0956364 0.0
0.0936364 0.0912727 0.0
0.0949091 0.0898182 0.0
0.0922028 0.0907902 0.0
0.0972 0.0888 0.0
0.0956364 0.0883636 0.0
0.0986 0.0874 0.0
0.1 0.086 0.0
0.082 0.1 0.0
0.0861538 0.0958462 0.0
0.0833846 0.0986154 0.0
0.0847692 0.0972308 0.0
0.0906667 0.0925 0.0
0.0893333 0.094 0.0
0.0875385 0.0944615 0.0
0.0930769 0.0889231 0.0
0.0944615 0.0875385 0.0
0.0907692 0.0903077 0.0
0.0914286 0.0885714 0.0
0.0970909 0.0869091 0.0
0.0958462 0.0861538 0.0
0.0985455 0.0854545 0.0
0.1 0.084 0.0
0.08 0.1 0.0
0.0814286 0.0985714 0.0
0.0857143 0.0942857 0.0
0.0842857 0.0957143 0.0
0.0828571 0.0971429 0.0
0.0892308 0.0916923 0.0
0.0871429 0.0928571 0.0
0.0928571 0.0871429 0.0
0.0942857 0.0857143 0.0
0.0893114 0.0901811 0.0
0.089392 0.08867 0.0
0.0907167 0.0867106 0.0
0.0972308 0.0847692 0.0
0.0957143 0.0842857 0.0
0.0986667 0.0835 0.0
0.1 0.082 0.0
0.078 0.1 0.0
0.0792178 0.0982115 0.0
0.085301 0.0925583 0.0
0.0806464 0.0967829 0.0
0.0837898 0.0936414 0.0
0.0824321 0.0949972 0.0
0.0872492 0.0908128 0.0
0.08531 0.0907126 0.0
0.0922534 0.0851627 0.0
0.0936298 0.0838015 0.0
0.0873555 0.0887685 0.0
0.0880013 0.0868419 0.0
0.0900049 0.0848497 0.0
0.0971429 0.0828571 0.0
0.0949856 0.0824438 0.0
0.0985714 0.0814286 0.0
0.1 0.08 0.0
0.076 0.1 0.0
0.0773196 0.0982116 0.0
0.0784356 0.096423 0.0
0.0834592 0.0922594 0.0
0.0798641 0.0949944 0.0
0.0818653 0.092997 0.0
0.085319 0.088867 0.0
0.0833721 0.0906124 0.0
0.083285 0.0889654 0.0
0.0916497 0.0831826 0.0
0.0929738 0.0818888 0.0
0.0863125 0.0873975 0.0
0.086145 0.0857484 0.0
0.0882995 0.0844584 0.0
0.089293 0.0829889 0.0
0.0962951 0.0811343 0.0
0.0949712 0.0798877 0.0
0.0981999 0.0792296 0.0
0.1 0.078 0.0
0.074 0.1 0.0
0.0753235 0.0981792 0.0
0.0766393 0.0964232 0.0
0.0776533 0.0946344 0.0
0.0786398 0.0931339 0.0
0.0811689 0.0910815 0.0
0.0799408 0.0923527 0.0
0.0841357 0.0870609 0.0
0.0812993 0.0890615 0.0
0.0826102 0.0871347 0.0
0.0910465 0.0812043 0.0
0.0923179 0.0799761 0.0
0.0846938 0.085524 0.0
0.0859776 0.0840993 0.0
0.0875516 0.0827196 0.0
0.0885828 0.0811322 0.0
0.0935282 0.0787601 0.0
0.0963997 0.0784591 0.0
0.0945996 0.0776887 0.0
0.0981998 0.0773313 0.0
0.1 0.076 0.0
0.072 0.1 0.0
0.07 0.1 0.0
0.073323 0.0981371 0.0
0.074647 0.0963585 0.0
0.0759589 0.0946348 0.0
0.0768711 0.0928459 0.0
0.0780163 0.0917083 0.0
0.0796271 0.0907551 0.0
0.0829524 0.0852547 0.0
0.081411 0.0860746 0.0
0.0793135 0.0891575 0.0
0.0803623 0.0876161 0.0
0.068 0.1 0.0
0.066 0.1 0.0
0.0913145 0.0779826 0.0
0.0904579 0.0792736 0.0
0.0843813 0.0838525 0.0
0.0858102 0.0824503 0.0
0.0834832 0.0826837 0.0
0.0865836 0.0812597 0.0
0.0878945 0.0793329 0.0
0.0927995 0.0769182 0.0
0.0963476 0.0764706 0.0
0.0945215 0.0757059 0.0
0.0982323 0.0752744 0.0
0.1 0.074 0.0
0.0714356 0.0981372 0.0
0.0694368 0.0980833 0.0
0.072646 0.0962741 0.0
0.0739706 0.0945377 0.0
0.0752785 0.0928464 0.0
0.0760918 0.091064 0.0
0.0773278 0.0892536 0.0
0.0817691 0.0834486 0.0
0.0804741 0.0846292 0.0
0.0794253 0.0861707 0.0
0.0783765 0.0877121 0.0
0.0675556 0.0980834 0.0
0.064 0.1 0.0
0.0655843 0.0981257 0.0
0.091006 0.0761506 0.0
0.0898692 0.0773429 0.0
0.0825851 0.0815148 0.0
0.0845843 0.0813873 0.0
0.0858079 0.0795889 0.0
0.0882434 0.0764729 0.0
0.0872062 0.0775337 0.0
0.092799 0.0753252 0.0
0.0964646 0.0745488 0.0
0.094697 0.0738232 0.0
0.0981393 0.0733487 0.0
0.0908935 0.0741866 0.0
0.1 0.072 0.0
0.062 0.1 0.0
0.0708711 0.0962744 0.0
0.0690961 0.0962744 0.0
0.0722012 0.0942498 0.0
0.07357 0.0924887 0.0
0.0746006 0.0910645 0.0
0.075342 0.0893497 0.0
0.0763908 0.0878082 0.0
0.0805859 0.0816424 0.0
0.0795371 0.0831839 0.0
0.0784883 0.0847253 0.0
0.0774396 0.0862668 0.0
0.0671112 0.0961669 0.0
0.0636856 0.0980155 0.0
0.0653487 0.0961669 0.0
0.06 0.1 0.0
0.058 0.1 0.0
0.0892805 0.0754121 0.0
0.0816346 0.080101 0.0
0.0837213 0.0798449 0.0
0.0849448 0.0780466 0.0
0.086518 0.0757344 0.0
0.0851251 0.0763762 0.0
0.0926948 0.0733685 0.0
0.0962786 0.0726975 0.0
0.0944178 0.0720462 0.0
0.0981393 0.0714612 0.0
0.0891431 0.0734537 0.0
0.090893 0.0727194 0.0
0.1 0.07 0.0
0.0617127 0.0980521 0.0
0.0703067 0.0944115 0.0
0.0686442 0.0944115 0.0
0.071292 0.0925482 0.0
0.0729706 0.090636 0.0
0.0739485 0.0893503 0.0
0.0748436 0.0877222 0.0
0.0758411 0.0861518 0.0
0.0807351 0.0789197 0.0
0.0789371 0.0809365 0.0
0.0775006 0.0812505 0.0
0.0772762 0.0831448 0.0
0.0761589 0.0845906 0.0
0.0666668 0.0942503 0.0
0.0633713 0.0960311 0.0
0.0650231 0.0942503 0.0
0.0598384 0.0980522 0.0
0.056 0.1 0.0
0.0577593 0.0981002 0.0
0.0875543 0.0733771 0.0
0.0826834 0.0785595 0.0
0.0837322 0.0770181 0.0
0.0858297 0.0739352 0.0
0.0843312 0.074886 0.0
0.0925571 0.0713949 0.0
0.0962786 0.0709225 0.0
0.0944178 0.0703837 0.0
0.0980942 0.0694696 0.0
0.0891425 0.0720889 0.0
0.0907393 0.0707587 0.0
0.0813341 0.0767876 0.0
0.0798356 0.0777384 0.0
0.1 0.068 0.0
0.0614253 0.0961042 0.0
0.0681923 0.0925487 0.0
0.0697422 0.0925487 0.0
0.0706307 0.0907283 0.0
0.0719782 0.0891753 0.0
0.0742427 0.0860369 0.0
0.0732964 0.0876361 0.0
0.0745604 0.0844756 0.0
0.0783371 0.0786892 0.0
0.0768035 0.07999 0.0
0.0760641 0.0815644 0.0
0.0748782 0.0829144 0.0
0.0662224 0.0923337 0.0
0.0627608 0.0941567 0.0
0.0643373 0.0925026 0.0
0.059474 0.0961611 0.0
0.054 0.1 0.0
0.0575186 0.0962003 0.0
0.055885 0.0981003 0.0
0.052 0.1 0.0
0.087392 0.0714583 0.0
0.0856424 0.0719877 0.0
0.0828326 0.0758368 0.0
0.0841043 0.0731967 0.0
0.0826341 0.0743587 0.0
0.0925571 0.069845 0.0
0.0961885 0.0689391 0.0
0.0942827 0.0684087 0.0
0.0981459 0.0675033 0.0
0.0889558 0.0701344 0.0
0.0910144 0.068939 0.0
0.0773609 0.0774753 0.0
0.0798699 0.0749668 0.0
0.0786154 0.0762211 0.0
0.1 0.066 0.0
0.061138 0.0941563 0.0
0.0677508 0.0907289 0.0
0.0691908 0.0907289 0.0
0.0699818 0.0889427 0.0
0.0713298 0.0874301 0.0
0.0726442 0.085922 0.0
0.0734351 0.0835611 0.0
0.0761064 0.0787296 0.0
0.074852 0.0799839 0.0
0.0735975 0.0812382 0.0
0.072343 0.0824925 0.0
0.0657925 0.09048 0.0
0.0643824 0.09048 0.0
0.0623482 0.0922109 0.0
0.059211 0.0942417 0.0
0.0572778 0.0943005 0.0
0.0539002 0.0979931 0.0
0.0557701 0.0962006 0.0
0.0520338 0.0979933 0.0
0.0500555 0.0979956 0.0
0.05 0.1 0.0
0.048 0.1 0.0
0.0871723 0.0695102 0.0
0.0861023 0.0702953 0.0
0.083892 0.0712547 0.0
0.0823788 0.0724582 0.0
0.0808425 0.073657 0.0
0.0925831 0.0675379 0.0
0.0962918 0.0670066 0.0
0.0944377 0.0665098 0.0
0.0980837 0.0655055 0.0
0.0892839 0.0683495 0.0
0.0875534 0.06776 0.0
0.0905337 0.0673652 0.0
0.0758237 0.0763162 0.0
0.0774625 0.0753517 0.0
0.07868 0.0739112 0.0
0.1 0.064 0.0
0.060851 0.0922104 0.0
0.0673176 0.0889434 0.0
0.0681088 0.0871579 0.0
0.0698663 0.0867863 0.0
0.0706814 0.0856849 0.0
0.0719921 0.0842078 0.0
0.0708684 0.0823559 0.0
0.0746972 0.0784522 0.0
0.0731609 0.079651 0.0
0.0725461 0.0782452 0.0
0.0716245 0.0808498 0.0
0.0653665 0.0886429 0.0
0.0635368 0.0888932 0.0
0.0619522 0.0903439 0.0
0.0605756 0.0903433 0.0
0.0589483 0.0923241 0.0
0.0570374 0.0924026 0.0
0.0556551 0.0943009 0.0
0.0538004 0.0959863 0.0
0.0520676 0.0959865 0.0
0.0555403 0.092403 0.0
0.0498877 0.0959769 0.0
0.0480775 0.0979886 0.0
0.0481549 0.0959771 0.0
0.046 0.1 0.0
0.0461986 0.0981069 0.0
0.0851154 0.0683851 0.0
0.0844079 0.0695998 0.0
0.0821664 0.0705321 0.0
0.0807242 0.0708401 0.0
0.079958 0.0719419 0.0
0.0858229 0.0671705 0.0
0.0925836 0.0660131 0.0
0.0960734 0.0651996 0.0
0.094251 0.0645164 0.0
0.0981223 0.0635333 0.0
0.0887071 0.0668568 0.0
0.0868804 0.0663484 0.0
0.0907903 0.0655327 0.0
0.07749 0.0728556 0.0
0.0782817 0.0715413 0.0
0.074444 0.076281 0.0
0.0755226 0.0747991 0.0
0.0765063 0.0738274 0.0
0.1 0.062 0.0
0.0836054 0.067253 0.0
0.059199 0.0903439 0.0
0.0661227 0.086805 0.0
0.0671334 0.0851697 0.0
0.068684 0.0853714 0.0
0.070033 0.0839397 0.0
0.0701861 0.0811379 0.0
0.0693938 0.0822192 0.0
0.0730644 0.0762458 0.0
0.0708394 0.0777672 0.0
0.0709073 0.0792097 0.0
0.0695038 0.0799199 0.0
0.0621403 0.0882598 0.0
0.0646306 0.0869508 0.0
0.0631384 0.0870966 0.0
0.0603001 0.0884763 0.0
0.0568066 0.0905816 0.0
0.0554301 0.0905822 0.0
0.0537005 0.0939794 0.0
0.0517657 0.0939864 0.0
0.0540457 0.0919478 0.0
0.0528297 0.0910149 0.0
0.0482324 0.0939657 0.0
0.0498315 0.0939653 0.0
0.0465959 0.0943207 0.0
0.0463973 0.0962138 0.0
0.044 0.1 0.0
0.0442202 0.0980915 0.0
0.0444404 0.096183 0.0
0.0827376 0.0689142 0.0
0.0804993 0.0689754 0.0
0.0790734 0.0702269 0.0
0.0850537 0.06584 0.0
0.0923365 0.0640224 0.0
0.0961673 0.0632625 0.0
0.094251 0.0628937 0.0
0.0981224 0.0616591 0.0
0.0890131 0.0650566 0.0
0.087236 0.0645805 0.0
0.090267 0.0640159 0.0
0.0818745 0.0667518 0.0
0.0773786 0.0703181 0.0
0.0763001 0.0718001 0.0
0.0741429 0.0747639 0.0
0.0752215 0.073282 0.0
0.1 0.06 0.0
0.0832586 0.0653403 0.0
0.0584441 0.0886446 0.0
0.0720929 0.0751233 0.0
0.0655829 0.0849679 0.0
0.0660181 0.0835869 0.0
0.0680351 0.0835858 0.0
0.068165 0.081348 0.0
0.0707715 0.0763246 0.0
0.0694501 0.0775259 0.0
0.0681386 0.0788409 0.0
0.0611604 0.0866101 0.0
0.0641614 0.085134 0.0
0.06274 0.0853 0.0
0.0588893 0.0866101 0.0
0.0565759 0.0887606 0.0
0.0540567 0.0900132 0.0
0.0527978 0.0890869 0.0
0.0516885 0.0920033 0.0
0.0516136 0.090082 0.0
0.049776 0.0919753 0.0
0.0463778 0.0923674 0.0
0.048309 0.0919758 0.0
[...]
POINT_DATA 3368
VECTORS u float
0.315931 0.423791 0.0
0.310075 0.414403 0.0
0.306533 0.415005 0.0
0.297148 0.406207 0.0
0.304227 0.405001 0.0
0.297745 0.400921 0.0
0.297442 0.403572 0.0
0.29041 0.396984 0.0
0.287793 0.39741 0.0
0.298386 0.395564 0.0
0.292534 0.386072 0.0
0.295702 0.396061 0.0
0.286649 0.376527 0.0
0.28543 0.387444 0.0
0.283101 0.387854 0.0
0.280777 0.388251 0.0
0.278468 0.388619 0.0
0.28073 0.366919 0.0
0.284069 0.377057 0.0
0.288555 0.385084 0.0
0.275928 0.374572 0.0
0.284653 0.384068 0.0
0.278027 0.367514 0.0
0.273452 0.37522 0.0
0.274102 0.379027 0.0
0.270592 0.378337 0.0
0.269168 0.379844 0.0
0.274737 0.357225 0.0
0.271588 0.35695 0.0
0.267265 0.3651 0.0
0.275427 0.36809 0.0
0.272825 0.368668 0.0
0.268552 0.356682 0.0
0.264989 0.365425 0.0
0.265056 0.370237 0.0
0.262472 0.37068 0.0
0.259889 0.371088 0.0
0.268623 0.347435 0.0
0.26607 0.348053 0.0
0.263638 0.348702 0.0
0.259584 0.355901 0.0
0.262581 0.356147 0.0
0.265559 0.356407 0.0
0.261251 0.349377 0.0
0.256548 0.355623 0.0
0.253517 0.355303 0.0
0.250198 0.346748 0.0
0.255449 0.361577 0.0
0.248903 0.352383 0.0
0.25303 0.36197 0.0
0.250612 0.362345 0.0
0.262364 0.337531 0.0
0.255607 0.339469 0.0
0.260004 0.338147 0.0
0.257779 0.338785 0.0
0.253625 0.346786 0.0
0.256598 0.346897 0.0
0.25342 0.340181 0.0
0.24413 0.342844 0.0
0.241712 0.34336 0.0
0.243895 0.337826 0.0
0.237832 0.333582 0.0
0.246367 0.352832 0.0
0.239275 0.34379 0.0
0.24384 0.353218 0.0
0.241322 0.353594 0.0
0.255879 0.327557 0.0
0.253611 0.328144 0.0
0.24724 0.330422 0.0
0.249354 0.329608 0.0
0.251445 0.328864 0.0
0.245793 0.336374 0.0
0.245009 0.331252 0.0
0.235335 0.334196 0.0
0.23278 0.334711 0.0
0.239184 0.330295 0.0
0.232596 0.324281 0.0
0.227393 0.322372 0.0
0.23684 0.344167 0.0
0.230219 0.335107 0.0
0.235099 0.345226 0.0
0.232003 0.344812 0.0
0.249166 0.317674 0.0
0.244729 0.315371 0.0
0.238313 0.320847 0.0
0.242849 0.316037 0.0
0.238653 0.31795 0.0
0.240465 0.317098 0.0
0.236182 0.322975 0.0
0.230257 0.313016 0.0
0.224534 0.323009 0.0
0.222052 0.323548 0.0
0.227415 0.314892 0.0
0.220608 0.310008 0.0
0.216946 0.311295 0.0
0.22766 0.335439 0.0
0.219541 0.323851 0.0
0.225135 0.335682 0.0
0.222624 0.335969 0.0
0.242162 0.307763 0.0
0.238333 0.305824 0.0
0.234092 0.303138 0.0
0.231673 0.310274 0.0
0.232499 0.303957 0.0
0.230128 0.305369 0.0
0.222231 0.305273 0.0
0.224351 0.30283 0.0
0.217136 0.295587 0.0
0.213715 0.311954 0.0
0.211287 0.312511 0.0
0.218541 0.304133 0.0
0.210861 0.29664 0.0
0.210696 0.301742 0.0
0.206564 0.300448 0.0
0.217103 0.324092 0.0
0.207431 0.312827 0.0
0.213688 0.324278 0.0
0.213278 0.327025 0.0
0.234803 0.297921 0.0
0.231208 0.295605 0.0
0.228114 0.293964 0.0
0.223982 0.290951 0.0
0.220987 0.289323 0.0
0.220094 0.293566 0.0
0.221711 0.292713 0.0
0.211341 0.292036 0.0
0.212194 0.285768 0.0
0.207699 0.284736 0.0
0.202892 0.301102 0.0
0.200516 0.301629 0.0
0.206232 0.288692 0.0
0.203193 0.28932 0.0
0.200902 0.291337 0.0
0.196199 0.289836 0.0
0.198016 0.301755 0.0
0.20478 0.312844 0.0
0.195932 0.301721 0.0
0.204733 0.315801 0.0
0.203925 0.317925 0.0
0.227032 0.288284 0.0
0.218832 0.278903 0.0
0.223733 0.285379 0.0
0.220993 0.283466 0.0
0.218481 0.282159 0.0
0.214369 0.27882 0.0
0.213425 0.279837 0.0
0.214375 0.284182 0.0
0.200741 0.279029 0.0
0.200294 0.27442 0.0
0.207173 0.275914 0.0
0.203865 0.2751 0.0
0.210193 0.269881 0.0
0.201056 0.261341 0.0
0.188354 0.289135 0.0
0.192283 0.2907 0.0
0.198167 0.280644 0.0
0.195459 0.282153 0.0
0.19104 0.271916 0.0
0.191907 0.281256 0.0
0.186161 0.27979 0.0
0.187223 0.290948 0.0
0.195154 0.303843 0.0
0.186226 0.292835 0.0
0.195115 0.306621 0.0
0.194627 0.308605 0.0
0.216545 0.27612 0.0
0.208368 0.266321 0.0
0.213541 0.272905 0.0
0.211492 0.271442 0.0
0.209413 0.270505 0.0
0.205347 0.266946 0.0
0.202117 0.265811 0.0
0.190325 0.266269 0.0
0.192221 0.264107 0.0
0.195809 0.26456 0.0
0.199108 0.2651 0.0
0.200541 0.25764 0.0
0.191435 0.253399 0.0
0.192135 0.24932 0.0
0.178769 0.280429 0.0
0.181589 0.280541 0.0
0.184027 0.263265 0.0
0.187874 0.272376 0.0
0.182449 0.271465 0.0
0.173439 0.270302 0.0
0.176063 0.269975 0.0
0.179566 0.284257 0.0
0.186345 0.295764 0.0
0.177683 0.285334 0.0
0.185769 0.297309 0.0
0.168985 0.272031 0.0
0.185444 0.299034 0.0
0.181399 0.246226 0.0
0.207015 0.264067 0.0
0.200227 0.255494 0.0
0.204406 0.260966 0.0
0.202661 0.259974 0.0
0.200904 0.259062 0.0
0.196933 0.255704 0.0
0.194299 0.254939 0.0
0.180257 0.253827 0.0
0.184306 0.253997 0.0
0.187997 0.254178 0.0
0.191337 0.254433 0.0
0.191998 0.245654 0.0
0.183187 0.241029 0.0
0.184754 0.237894 0.0
0.17094 0.239942 0.0
0.160138 0.234574 0.0
0.170804 0.270576 0.0
0.175804 0.253601 0.0
0.179058 0.262755 0.0
0.17343 0.262055 0.0
0.165985 0.260497 0.0
0.165981 0.256883 0.0
0.169876 0.275595 0.0
0.176983 0.286599 0.0
0.168364 0.276444 0.0
0.176985 0.28839 0.0
0.161068 0.26244 0.0
0.16189 0.266105 0.0
0.176406 0.289166 0.0
0.174054 0.234045 0.0
0.198279 0.252199 0.0
0.192216 0.244071 0.0
0.195484 0.248378 0.0
0.194514 0.248544 0.0
0.193014 0.248255 0.0
0.189939 0.246357 0.0
0.187028 0.245476 0.0
0.168948 0.245283 0.0
0.173952 0.243016 0.0
0.172336 0.236532 0.0
0.179274 0.242013 0.0
0.182174 0.241261 0.0
0.184297 0.233926 0.0
0.175981 0.22903 0.0
0.17793 0.226594 0.0
0.164969 0.228029 0.0
0.149015 0.230403 0.0
0.154721 0.22268 0.0
0.15683 0.256027 0.0
0.171077 0.253369 0.0
0.166094 0.25296 0.0
0.155747 0.251258 0.0
0.15724 0.248272 0.0
0.15996 0.266723 0.0
0.168643 0.278423 0.0
0.16048 0.269035 0.0
0.167719 0.278566 0.0
0.154308 0.257128 0.0
0.151975 0.257556 0.0
0.160347 0.241107 0.0
0.161941 0.236981 0.0
0.16765 0.278959 0.0
0.167613 0.222275 0.0
0.184891 0.232872 0.0
0.190266 0.240519 0.0
0.187561 0.236706 0.0
0.186839 0.236952 0.0
0.182677 0.236428 0.0
0.185562 0.237635 0.0
0.178093 0.232094 0.0
0.163493 0.232512 0.0
0.166073 0.228575 0.0
0.170708 0.229841 0.0
0.173242 0.228109 0.0
0.177284 0.222439 0.0
0.168652 0.216776 0.0
0.170824 0.214861 0.0
0.158961 0.216299 0.0
0.137733 0.227277 0.0
0.150015 0.211272 0.0
0.145176 0.218731 0.0
0.126398 0.225073 0.0
0.147078 0.248424 0.0
0.145832 0.243672 0.0
0.158705 0.244956 0.0
0.148585 0.241669 0.0
0.151433 0.239304 0.0
0.152523 0.260096 0.0
0.159197 0.268773 0.0
0.150893 0.259616 0.0
0.159157 0.268994 0.0
0.14442 0.24891 0.0
0.143968 0.251096 0.0
0.156475 0.223473 0.0
0.149368 0.22851 0.0
0.153023 0.226168 0.0
0.15928 0.268355 0.0
0.161967 0.210826 0.0
0.17827 0.222146 0.0
0.182995 0.229308 0.0
0.180255 0.225428 0.0
0.179609 0.226113 0.0
0.17831 0.227168 0.0
0.172459 0.222527 0.0
0.159698 0.220732 0.0
0.162462 0.217893 0.0
0.164708 0.215202 0.0
0.166516 0.212499 0.0
0.17107 0.211525 0.0
0.166208 0.205129 0.0
0.162692 0.205193 0.0
0.154003 0.205081 0.0
0.145775 0.20025 0.0
0.134801 0.215002 0.0
0.141797 0.207575 0.0
0.125366 0.213466 0.0
0.115415 0.212797 0.0
0.11514 0.224844 0.0
0.104018 0.225603 0.0
0.137076 0.240434 0.0
0.138445 0.239562 0.0
0.138625 0.234381 0.0
0.141674 0.232167 0.0
0.144857 0.228997 0.0
0.14191 0.250137 0.0
0.150856 0.25988 0.0
0.142797 0.251369 0.0
0.15048 0.258518 0.0
0.136648 0.243056 0.0
0.129576 0.235227 0.0
0.13537 0.243014 0.0
0.149059 0.211802 0.0
0.14732 0.217663 0.0
0.142597 0.219719 0.0
0.151366 0.257387 0.0
0.156889 0.199638 0.0
0.172163 0.211743 0.0
0.169847 0.207911 0.0
0.173708 0.215641 0.0
0.17262 0.215521 0.0
0.171246 0.216917 0.0
0.162944 0.203675 0.0
0.156214 0.212073 0.0
0.158122 0.207295 0.0
0.151815 0.199186 0.0
0.159465 0.202562 0.0
0.165267 0.200949 0.0
0.159852 0.193785 0.0
0.157256 0.194296 0.0
0.152219 0.189269 0.0
0.1495 0.194133 0.0
0.141849 0.189513 0.0
0.138685 0.196848 0.0
0.132274 0.203383 0.0
0.124101 0.201947 0.0
0.135656 0.186369 0.0
0.113902 0.201265 0.0
0.105398 0.213531 0.0
0.106008 0.202388 0.0
0.0931383 0.227693 0.0
0.0960445 0.216346 0.0
0.126922 0.229417 0.0
0.131467 0.230876 0.0
0.131762 0.225315 0.0
0.130809 0.220114 0.0
0.135042 0.219941 0.0
0.122697 0.227462 0.0
0.134957 0.243448 0.0
0.142389 0.250274 0.0
0.133653 0.241447 0.0
0.142724 0.248285 0.0
0.128173 0.235372 0.0
0.121211 0.227863 0.0
0.127645 0.236151 0.0
0.135666 0.210596 0.0
0.130419 0.210979 0.0
0.146838 0.204085 0.0
0.141958 0.205758 0.0
0.138918 0.208276 0.0
0.144072 0.246001 0.0
0.118152 0.220306 0.0
0.14711 0.184574 0.0
0.163198 0.196259 0.0
0.16203 0.194322 0.0
0.166646 0.20344 0.0
0.165864 0.205075 0.0
0.157589 0.195352 0.0
0.159293 0.19485 0.0
0.144671 0.195913 0.0
0.147166 0.187611 0.0
0.152509 0.192788 0.0
0.152284 0.187022 0.0
0.153846 0.18487 0.0
0.15907 0.189673 0.0
0.154719 0.183545 0.0
0.14793 0.178802 0.0
0.138292 0.179203 0.0
0.132908 0.176571 0.0
0.129714 0.192067 0.0
0.121256 0.190692 0.0
0.128996 0.181583 0.0
0.123063 0.175391 0.0
0.106069 0.191288 0.0
0.112868 0.190388 0.0
0.099185 0.195066 0.0
0.0980697 0.20551 0.0
0.0826882 0.230855 0.0
0.0866042 0.219528 0.0
0.089387 0.208613 0.0
0.12478 0.222484 0.0
0.120954 0.21375 0.0
0.125037 0.211031 0.0
0.114431 0.22029 0.0
0.125721 0.23382 0.0
0.134882 0.240837 0.0
0.127083 0.233709 0.0
0.135796 0.238152 0.0
0.120643 0.229148 0.0
0.113847 0.222296 0.0
0.119625 0.228251 0.0
0.112153 0.212538 0.0
0.122912 0.203174 0.0
0.12886 0.201615 0.0
0.139795 0.197922 0.0
0.134552 0.1998 0.0
0.13756 0.234229 0.0
0.108042 0.212862 0.0
0.141563 0.173556 0.0
0.138559 0.186853 0.0
0.157289 0.185449 0.0
0.155016 0.181782 0.0
0.160065 0.192667 0.0
0.154022 0.184592 0.0
0.141497 0.182641 0.0
0.144004 0.178396 0.0
0.146138 0.175112 0.0
0.147408 0.172858 0.0
0.153626 0.17917 0.0
0.149773 0.173368 0.0
0.13987 0.164536 0.0
0.134864 0.16913 0.0
0.126863 0.171202 0.0
0.120998 0.1651 0.0
0.119388 0.179749 0.0
0.117424 0.169553 0.0
0.111531 0.179747 0.0
0.0980211 0.184906 0.0
0.105614 0.180562 0.0
0.0727725 0.235087 0.0
0.0911094 0.197981 0.0
0.0921697 0.187694 0.0
0.0776045 0.223787 0.0
0.0810967 0.212846 0.0
0.0834118 0.202145 0.0
0.115045 0.204715 0.0
0.113677 0.209013 0.0
0.128303 0.192881 0.0
0.106386 0.204346 0.0
0.107303 0.215392 0.0
0.11957 0.22707 0.0
0.127872 0.231093 0.0
0.120276 0.224676 0.0
0.128948 0.226821 0.0
0.112724 0.221691 0.0
0.106043 0.21525 0.0
0.11266 0.220972 0.0
0.10199 0.205422 0.0
0.109277 0.195175 0.0
0.113726 0.191282 0.0
0.121142 0.192163 0.0
0.130853 0.187204 0.0
0.12785 0.173818 0.0
0.131759 0.222181 0.0
0.10102 0.208583 0.0
0.131514 0.159046 0.0
0.135188 0.175188 0.0
0.150749 0.173398 0.0
0.149576 0.17228 0.0
0.147534 0.172189 0.0
0.136775 0.169166 0.0
0.139383 0.16544 0.0
0.14103 0.162 0.0
0.141787 0.163718 0.0
0.144456 0.164095 0.0
0.146366 0.165327 0.0
0.124573 0.146985 0.0
0.130547 0.150368 0.0
0.136216 0.154683 0.0
0.124612 0.160925 0.0
0.115235 0.159146 0.0
0.112205 0.169396 0.0
0.104806 0.170253 0.0
0.0977152 0.175098 0.0
0.0906821 0.178295 0.0
0.063455 0.240218 0.0
0.0691158 0.228924 0.0
0.0849181 0.191636 0.0
0.0732374 0.217933 0.0
0.0771774 0.206764 0.0
0.0794722 0.196023 0.0
0.104456 0.197734 0.0
0.12363 0.18324 0.0
0.0975485 0.196306 0.0
0.0973717 0.206992 0.0
0.112984 0.218726 0.0
0.121189 0.221198 0.0
0.113582 0.215647 0.0
0.123267 0.215742 0.0
0.105974 0.215025 0.0
0.0994725 0.209191 0.0
0.106255 0.213294 0.0
0.0985515 0.188152 0.0
0.0949812 0.201622 0.0
0.0927471 0.196775 0.0
0.103458 0.184863 0.0
0.110917 0.181778 0.0
0.115043 0.177581 0.0
0.123807 0.161977 0.0
0.118998 0.17304 0.0
0.120741 0.166969 0.0
0.127029 0.209787 0.0
0.0909369 0.20043 0.0
0.122279 0.150682 0.0
0.129058 0.159814 0.0
0.117827 0.137836 0.0
0.145592 0.163959 0.0
0.143888 0.162955 0.0
0.137966 0.153725 0.0
0.132088 0.155701 0.0
0.134135 0.151716 0.0
0.138242 0.154082 0.0
0.139865 0.154111 0.0
0.141471 0.155891 0.0
0.121696 0.13742 0.0
0.12742 0.140868 0.0
0.132586 0.145134 0.0
0.115704 0.149202 0.0
0.10908 0.148791 0.0
0.108183 0.159029 0.0
0.0857495 0.181784 0.0
0.0994865 0.164947 0.0
0.0872211 0.171359 0.0
0.0927085 0.167917 0.0
0.0547768 0.246233 0.0
0.0467937 0.252806 0.0
0.0608842 0.235553 0.0
0.0654766 0.225098 0.0
0.0809662 0.185816 0.0
0.0688808 0.214819 0.0
0.0729456 0.201741 0.0
0.0747283 0.191408 0.0
0.0916237 0.187498 0.0
0.0904348 0.191494 0.0
0.0909569 0.201258 0.0
0.106378 0.210526 0.0
0.11529 0.209991 0.0
0.108318 0.206236 0.0
0.118819 0.204988 0.0
0.0996646 0.205789 0.0
0.0934311 0.202626 0.0
0.0997669 0.207922 0.0
0.0936365 0.176234 0.0
0.0857125 0.177714 0.0
0.0814002 0.191119 0.0
0.0879498 0.195203 0.0
0.0833087 0.18679 0.0
0.09763 0.173787 0.0
0.120734 0.150397 0.0
0.104766 0.170056 0.0
0.109172 0.164987 0.0
0.117176 0.155071 0.0
0.113295 0.159968 0.0
0.123393 0.197186 0.0
0.0812228 0.192049 0.0
0.113727 0.138965 0.0
0.124238 0.145839 0.0
0.114256 0.129901 0.0
0.13809 0.150348 0.0
0.132095 0.14076 0.0
0.129937 0.141305 0.0
0.125664 0.138236 0.0
0.116318 0.124475 0.0
0.133208 0.141662 0.0
0.135192 0.144004 0.0
0.121258 0.129763 0.0
0.126299 0.13362 0.0
0.1275 0.132361 0.0
0.107346 0.138521 0.0
0.102456 0.149691 0.0
0.0988678 0.155166 0.0
0.0819214 0.175619 0.0
0.086096 0.161889 0.0
0.0923329 0.157998 0.0
0.0395797 0.259878 0.0
0.0330924 0.267351 0.0
0.0537564 0.242045 0.0
0.0470048 0.249147 0.0
0.00676102 0.317366 0.0
0.0273459 0.274945 0.0
0.00877373 0.311229 0.0
0.0113062 0.304437 0.0
0.0223526 0.282617 0.0
0.014389 0.297507 0.0
0.0180556 0.290198 0.0
0.0591291 0.231423 0.0
0.0632324 0.220936 0.0
0.0758722 0.181092 0.0
0.0662834 0.210574 0.0
0.0684286 0.200581 0.0
0.0699221 0.190723 0.0
0.00504771 0.322999 0.0
0.0091425 0.31707 0.0
0.00375708 0.328125 0.0
0.0777206 0.178193 0.0
0.084679 0.194908 0.0
0.101315 0.201853 0.0
0.111093 0.200701 0.0
0.104076 0.196701 0.0
0.115312 0.193456 0.0
0.0852048 0.193634 0.0
0.0947004 0.197714 0.0
0.0917785 0.198673 0.0
0.0753985 0.185861 0.0
0.075156 0.186148 0.0
0.0872737 0.16474 0.0
0.086288 0.172397 0.0
0.0787968 0.16867 0.0
0.0757688 0.18444 0.0
0.0704257 0.177143 0.0
0.116672 0.135259 0.0
0.093635 0.16269 0.0
0.112195 0.143098 0.0
0.0961191 0.156084 0.0
0.101811 0.151443 0.0
0.107102 0.147148 0.0
0.120944 0.184486 0.0
0.0788165 0.188622 0.0
0.108349 0.128646 0.0
0.11827 0.130973 0.0
0.111418 0.119899 0.0
0.112837 0.114617 0.0
0.129822 0.134296 0.0
0.125707 0.13099 0.0
0.119228 0.123781 0.0
0.114219 0.114518 0.0
0.117555 0.120093 0.0
0.128263 0.131526 0.0
0.122288 0.123796 0.0
0.102202 0.136791 0.0
0.102341 0.128638 0.0
0.0981659 0.145349 0.0
0.0918691 0.148071 0.0
0.0755513 0.173563 0.0
0.0801327 0.166591 0.0
0.0857964 0.151876 0.0
0.0406437 0.257096 0.0
0.0351853 0.264636 0.0
0.053209 0.23822 0.0
0.0467746 0.246807 0.0
0.0110316 0.311684 0.0
0.030278 0.272391 0.0
0.0134632 0.305088 0.0
0.0181671 0.295489 0.0
0.025578 0.280567 0.0
0.0217657 0.287938 0.0
0.0579588 0.227488 0.0
0.0606579 0.21745 0.0
0.0710168 0.180862 0.0
0.0630322 0.207346 0.0
0.0647515 0.197363 0.0
0.065991 0.187368 0.0
0.00131798 0.339358 0.0
0.00190826 0.336191 0.0
0.00272916 0.332447 0.0
0.0125086 0.311939 0.0
0.0076316 0.322119 0.0
0.00598247 0.326808 0.0
0.0716092 0.169745 0.0
0.0653421 0.168776 0.0
0.0971911 0.192898 0.0
0.0814117 0.187894 0.0
0.107769 0.190111 0.0
0.100987 0.188617 0.0
0.113064 0.182481 0.0
0.0907418 0.189326 0.0
0.0870292 0.191043 0.0
0.0695219 0.180706 0.0
0.0713817 0.181927 0.0
0.0783332 0.152188 0.0
0.0730865 0.156512 0.0
0.0663812 0.158875 0.0
0.0642577 0.174604 0.0
0.0592948 0.167608 0.0
0.108665 0.120197 0.0
0.106392 0.124822 0.0
0.0865112 0.148835 0.0
0.101752 0.132079 0.0
0.0891839 0.141934 0.0
0.0971518 0.140676 0.0
0.11924 0.171778 0.0
0.0744263 0.182019 0.0
0.105888 0.118676 0.0
0.110298 0.113343 0.0
0.108386 0.109975 0.0
0.112 0.108987 0.0
0.12432 0.124587 0.0
0.117193 0.114971 0.0
0.109493 0.10554 0.0
0.116359 0.112443 0.0
0.120005 0.116893 0.0
0.0972904 0.135802 0.0
0.100233 0.118742 0.0
0.0964688 0.126145 0.0
0.0912626 0.138334 0.0
0.0854245 0.142132 0.0
0.074654 0.166471 0.0
0.0800411 0.156538 0.0
0.0416774 0.254169 0.0
0.0368855 0.261977 0.0
0.0516647 0.236524 0.0
0.046983 0.243654 0.0
0.0149174 0.305595 0.0
0.0319805 0.270633 0.0
0.0193249 0.296184 0.0
0.0242236 0.286124 0.0
0.028178 0.278013 0.0
0.055475 0.226253 0.0
0.0583962 0.216271 0.0
0.0688136 0.175745 0.0
0.0606336 0.206519 0.0
0.0623505 0.196768 0.0
0.0637984 0.186957 0.0
0.000596638 0.343454 0.0
0.000880054 0.341718 0.0
0.016487 0.304671 0.0
0.00238884 0.337438 0.0
0.00349067 0.334668 0.0
0.00483245 0.330702 0.0
0.0134646 0.311874 0.0
0.00881315 0.321633 0.0
0.0117867 0.315952 0.0
0.0074203 0.32525 0.0
0.0604643 0.158917 0.0
0.0550941 0.158296 0.0
0.0945762 0.185896 0.0
0.0513382 0.158255 0.0
0.0883073 0.183192 0.0
0.105817 0.18071 0.0
0.0781897 0.182097 0.0
0.0988948 0.178803 0.0
0.0923072 0.176831 0.0
0.11189 0.171078 0.0
0.0821107 0.180484 0.0
0.0597783 0.170533 0.0
0.0684601 0.177501 0.0
0.0649433 0.175892 0.0
0.0716572 0.137275 0.0
0.0668486 0.14211 0.0
0.0609279 0.145524 0.0
0.0565161 0.147494 0.0
0.0546735 0.164663 0.0
0.099611 0.102661 0.0
0.0944023 0.113566 0.0
0.096275 0.106274 0.0
0.0784754 0.133224 0.0
0.0898881 0.118245 0.0
0.0916869 0.129279 0.0
0.0812756 0.126297 0.0
0.119543 0.159165 0.0
0.111794 0.160377 0.0
0.0703591 0.174651 0.0
0.103357 0.108707 0.0
0.0999001 0.0960434 0.0
0.105097 0.100241 0.0
0.100803 0.099313 0.0
0.108059 0.101392 0.0
0.110536 0.102427 0.0
0.108973 0.100388 0.0
0.11571 0.109645 0.0
0.100361 0.0900276 0.0
0.112769 0.104789 0.0
0.0965114 0.10933 0.0
0.0905741 0.128567 0.0
0.0919633 0.117495 0.0
0.0850253 0.132352 0.0
0.079923 0.14669 0.0
0.0696796 0.165566 0.0
0.0748104 0.157108 0.0
4.62936e-33 0.344584 0.0
0.0413271 0.253283 0.0
0.0373557 0.260543 0.0
0.0512404 0.233132 0.0
0.0455139 0.24329 0.0
0.0204716 0.295892 0.0
0.0328797 0.26942 0.0
0.0247756 0.286481 0.0
0.0295015 0.276446 0.0
0.0546089 0.22286 0.0
0.0561808 0.21379 0.0
0.0648351 0.17709 0.0
0.058035 0.203901 0.0
0.0602911 0.193242 0.0
0.00023277 0.344484 0.0
0.00123363 0.338756 0.0
0.00162158 0.339172 0.0
0.00322059 0.334653 0.0
0.0198228 0.298184 0.0
0.0171018 0.304322 0.0
0.00534793 0.329555 0.0
0.00607821 0.328589 0.0
0.0146448 0.309906 0.0
0.00972711 0.320461 0.0
0.0122716 0.314886 0.0
0.00828968 0.323374 0.0
0.0517395 0.148298 0.0
0.0471881 0.149429 0.0
0.0838451 0.176404 0.0
0.104914 0.170135 0.0
0.0468938 0.153145 0.0
0.0500518 0.159296 0.0
0.0856956 0.17208 0.0
0.0650193 0.171454 0.0
0.0978308 0.168891 0.0
0.0753298 0.174576 0.0
0.0912101 0.167549 0.0
0.0683408 0.167601 0.0
0.104645 0.160807 0.0
0.0795192 0.169524 0.0
0.0558005 0.165985 0.0
0.0596461 0.168143 0.0
0.0638158 0.119909 0.0
0.0598423 0.12502 0.0
0.0552758 0.129431 0.0
0.0516057 0.132873 0.0
0.0475586 0.135404 0.0
0.0499283 0.159683 0.0
0.0436861 0.149071 0.0
0.0798412 0.101291 0.0
0.0888147 0.0866153 0.0
0.0865346 0.0916996 0.0
0.0828817 0.0954226 0.0
0.0683426 0.114986 0.0
0.0759539 0.106709 0.0
0.0726625 0.109764 0.0
0.120892 0.146823 0.0
0.113205 0.14842 0.0
0.105986 0.149226 0.0
0.0626866 0.165008 0.0
0.0963973 0.0990538 0.0
0.0902792 0.0819558 0.0
0.0974029 0.0902339 0.0
0.101622 0.090989 0.0
0.0914622 0.0788481 0.0
0.104154 0.0921945 0.0
0.0997915 0.0864157 0.0
0.107077 0.0953016 0.0
0.0912243 0.108128 0.0
0.0848018 0.122459 0.0
0.0863059 0.110987 0.0
0.0658905 0.167523 0.0
0.079818 0.136816 0.0
0.074984 0.147929 0.0
0.0782685 0.129965 0.0
0.0705015 0.155496 0.0
8.08558e-33 0.339565 0.0
0.0417974 0.250409 0.0
0.0373395 0.259626 0.0
0.0488368 0.23345 0.0
0.0454537 0.240253 0.0
0.0249275 0.286906 0.0
0.034121 0.26654 0.0
0.0302539 0.275088 0.0
0.0235874 0.29014 0.0
0.0621265 0.174452 0.0
0.0513924 0.223899 0.0
0.0542845 0.212232 0.0
0.0587796 0.189364 0.0
0.0571012 0.199657 0.0
0.000886225 0.336558 0.0
0.00216217 0.334211 0.0
0.00364291 0.331638 0.0
0.00688812 0.324587 0.0
0.00518509 0.327605 0.0
0.0203565 0.297298 0.0
0.0173478 0.303864 0.0
0.00870666 0.3212 0.0
0.0147055 0.308919 0.0
0.0108069 0.317413 0.0
0.0443583 0.138651 0.0
0.0419883 0.14058 0.0
0.0463009 0.154628 0.0
0.0851599 0.165939 0.0
0.0574012 0.162187 0.0
0.0914213 0.160445 0.0
0.0980535 0.159118 0.0
0.0762403 0.163547 0.0
0.073568 0.166859 0.0
0.0850995 0.159812 0.0
0.0674375 0.162119 0.0
0.0990071 0.151125 0.0
0.0789903 0.158904 0.0
0.06188 0.158328 0.0
0.0521428 0.159263 0.0
0.0481371 0.155954 0.0
0.0765825 0.0742835 0.0
0.0628209 0.0864825 0.0