# vtk DataFile Version 2.0
Vtkoutput example
ASCII

DATASET UNSTRUCTURED_GRID
POINTS 36864 float
0.0201562 0.0201562 0.0
0.0204687 0.0201562 0.0
0.0207812 0.0201562 0.0
0.0210937 0.0201562 0.0
0.0214062 0.0201562 0.0
0.0217187 0.0201562 0.0
0.0220312 0.0201562 0.0
0.0223437 0.0201562 0.0
0.0226562 0.0201562 0.0
0.0229687 0.0201562 0.0
0.0232812 0.0201562 0.0
0.0235937 0.0201562 0.0
0.0239062 0.0201562 0.0
0.0242187 0.0201562 0.0
0.0245312 0.0201562 0.0
0.0248437 0.0201562 0.0
0.0251562 0.0201562 0.0
0.0254687 0.0201562 0.0
0.0257812 0.0201562 0.0
0.0260937 0.0201562 0.0
0.0264062 0.0201562 0.0
0.0267187 0.0201562 0.0
0.0270312 0.0201562 0.0
0.0273438 0.0201562 0.0
0.0276562 0.0201562 0.0
0.0279687 0.0201562 0.0
0.0282813 0.0201562 0.0
0.0285937 0.0201562 0.0
0.0289062 0.0201562 0.0
0.0292187 0.0201562 0.0
0.0295312 0.0201562 0.0
0.0298437 0.0201562 0.0
0.0301563 0.0201562 0.0
0.0304687 0.0201562 0.0
0.0307812 0.0201562 0.0
0.0310937 0.0201562 0.0
0.0314062 0.0201562 0.0
0.0317188 0.0201562 0.0
0.0320312 0.0201562 0.0
0.0323437 0.0201562 0.0
0.0326562 0.0201562 0.0
0.0329688 0.0201562 0.0
0.0332812 0.0201562 0.0
0.0335937 0.0201562 0.0
0.0339062 0.0201562 0.0
0.0342187 0.0201562 0.0
0.0345312 0.0201562 0.0
0.0348437 0.0201562 0.0
0.0351562 0.0201562 0.0
0.0354688 0.0201562 0.0
0.0357813 0.0201562 0.0
0.0360938 0.0201562 0.0
0.0364063 0.0201562 0.0
0.0367188 0.0201562 0.0
0.0370313 0.0201562 0.0
0.0373438 0.0201562 0.0
0.0376563 0.0201562 0.0
0.0379687 0.0201562 0.0
0.0382812 0.0201562 0.0
0.0385938 0.0201562 0.0
0.0389062 0.0201562 0.0
0.0392187 0.0201562 0.0
0.0395313 0.0201562 0.0
0.0398437 0.0201562 0.0
0.0401563 0.0201562 0.0
0.0404687 0.0201562 0.0
0.0407812 0.0201562 0.0
0.0410937 0.0201562 0.0
0.0414062 0.0201562 0.0
0.0417187 0.0201562 0.0
0.0420312 0.0201562 0.0
0.0423437 0.0201562 0.0
0.0426562 0.0201562 0.0
0.0429688 0.0201562 0.0
0.0432813 0.0201562 0.0
0.0435938 0.0201562 0.0
0.0439063 0.0201562 0.0
0.0442188 0.0201562 0.0
0.0445313 0.0201562 0.0
0.0448438 0.0201562 0.0
0.0451562 0.0201562 0.0
0.0454688 0.0201562 0.0
0.0457813 0.0201562 0.0
0.0460938 0.0201562 0.0
0.0464062 0.0201562 0.0
0.0467188 0.0201562 0.0
0.0470312 0.0201562 0.0
0.0473438 0.0201562 0.0
0.0476563 0.0201562 0.0
0.0479687 0.0201562 0.0
0.0482813 0.0201562 0.0
0.0485938 0.0201562 0.0
0.0489062 0.0201562 0.0
0.0492188 0.0201562 0.0
0.0495313 0.0201562 0.0
0.0498437 0.0201562 0.0
0.0501562 0.0201562 0.0
0.0504688 0.0201562 0.0
0.0507812 0.0201562 0.0
0.0510938 0.0201562 0.0
0.0514063 0.0201562 0.0
0.0517187 0.0201562 0.0
0.0520313 0.0201562 0.0
0.0523438 0.0201562 0.0
0.0526563 0.0201562 0.0
0.0529687 0.0201562 0.0
0.0532813 0.0201562 0.0
0.0535938 0.0201562 0.0
0.0539063 0.0201562 0.0
0.0542187 0.0201562 0.0
0.0545313 0.0201562 0.0
0.0548438 0.0201562 0.0
0.0551563 0.0201562 0.0
0.0554688 0.0201562 0.0
0.0557812 0.0201562 0.0
0.0560937 0.0201562 0.0
0.0564062 0.0201562 0.0
0.0567188 0.0201562 0.0
0.0570313 0.0201562 0.0
0.0573438 0.0201562 0.0
0.0576562 0.0201562 0.0
0.0579687 0.0201562 0.0
0.0582813 0.0201562 0.0
0.0585938 0.0201562 0.0
0.0589063 0.0201562 0.0
0.0592188 0.0201562 0.0
0.0595313 0.0201562 0.0
0.0598438 0.0201562 0.0
0.0601563 0.0201562 0.0
0.0604688 0.0201562 0.0
0.0607813 0.0201562 0.0
0.0610938 0.0201562 0.0
0.0614062 0.0201562 0.0
0.0617188 0.0201562 0.0
0.0620313 0.0201562 0.0
0.0623438 0.0201562 0.0
0.0626562 0.0201562 0.0
0.0629688 0.0201562 0.0
0.0632813 0.0201562 0.0
0.0635938 0.0201562 0.0
0.0639062 0.0201562 0.0
0.0642187 0.0201562 0.0
0.0645313 0.0201562 0.0
0.0648438 0.0201562 0.0
0.0651562 0.0201562 0.0
0.0654688 0.0201562 0.0
0.0657812 0.0201562 0.0
0.0660937 0.0201562 0.0
0.0664062 0.0201562 0.0
0.0667188 0.0201562 0.0
0.0670313 0.0201562 0.0
0.0673438 0.0201562 0.0
0.0676563 0.0201562 0.0
0.0679688 0.0201562 0.0
0.0682813 0.0201562 0.0
0.0685938 0.0201562 0.0
0.0689063 0.0201562 0.0
0.0692187 0.0201562 0.0
0.0695313 0.0201562 0.0
0.0698438 0.0201562 0.0
0.0701563 0.0201562 0.0
0.0704687 0.0201562 0.0
0.0707813 0.0201562 0.0
0.0710938 0.0201562 0.0
0.0714063 0.0201562 0.0
0.0717187 0.0201562 0.0
0.0720313 0.0201562 0.0
0.0723437 0.0201562 0.0
0.0726563 0.0201562 0.0
0.0729687 0.0201562 0.0
0.0732813 0.0201562 0.0
0.0735938 0.0201562 0.0
0.0739063 0.0201562 0.0
0.0742188 0.0201562 0.0
0.0745313 0.0201562 0.0
0.0748438 0.0201562 0.0
0.0751563 0.0201562 0.0
0.0754688 0.0201562 0.0
0.0757812 0.0201562 0.0
0.0760938 0.0201562 0.0
0.0764063 0.0201562 0.0
0.0767187 0.0201562 0.0
0.0770313 0.0201562 0.0
0.0773438 0.0201562 0.0
0.0776562 0.0201562 0.0
0.0779688 0.0201562 0.0
0.0782813 0.0201562 0.0
0.0785938 0.0201562 0.0
0.0789063 0.0201562 0.0
0.0792188 0.0201562 0.0
0.0795312 0.0201562 0.0
0.0798438 0.0201562 0.0
0.0201562 0.0204687 0.0
0.0204687 0.0204687 0.0
0.0207812 0.0204687 0.0
0.0210937 0.0204687 0.0
0.0214062 0.0204687 0.0
0.0217187 0.0204687 0.0
0.0220312 0.0204687 0.0
0.0223437 0.0204687 0.0
0.0226562 0.0204687 0.0
0.0229687 0.0204687 0.0
0.0232812 0.0204687 0.0
0.0235937 0.0204687 0.0
0.0239062 0.0204687 0.0
0.0242187 0.0204687 0.0
0.0245312 0.0204687 0.0
0.0248437 0.0204687 0.0
0.0251562 0.0204687 0.0
0.0254687 0.0204687 0.0
0.0257812 0.0204687 0.0
0.0260937 0.0204687 0.0
0.0264062 0.0204687 0.0
0.0267187 0.0204687 0.0
0.0270312 0.0204687 0.0
0.0273438 0.0204687 0.0
0.0276562 0.0204687 0.0
0.0279687 0.0204687 0.0
0.0282813 0.0204687 0.0
0.0285937 0.0204687 0.0
0.0289062 0.0204687 0.0
0.0292187 0.0204687 0.0
0.0295312 0.0204687 0.0
0.0298437 0.0204687 0.0
0.0301563 0.0204687 0.0
0.0304687 0.0204687 0.0
0.0307812 0.0204687 0.0
0.0310937 0.0204687 0.0
0.0314062 0.0204687 0.0
0.0317188 0.0204687 0.0
0.0320312 0.0204687 0.0
0.0323437 0.0204687 0.0
0.0326562 0.0204687 0.0
0.0329688 0.0204687 0.0
0.0332812 0.0204687 0.0
0.0335937 0.0204687 0.0
0.0339062 0.0204687 0.0
0.0342187 0.0204687 0.0
0.0345312 0.0204687 0.0
0.0348437 0.0204687 0.0
0.0351562 0.0204687 0.0
0.0354688 0.0204687 0.0
0.0357813 0.0204687 0.0
0.0360938 0.0204687 0.0
0.0364063 0.0204687 0.0
0.0367188 0.0204687 0.0
0.0370313 0.0204687 0.0
0.0373438 0.0204687 0.0
0.0376563 0.0204687 0.0
0.0379687 0.0204687 0.0
0.0382812 0.0204687 0.0
0.0385938 0.0204687 0.0
0.0389062 0.0204687 0.0
0.0392187 0.0204687 0.0
0.0395313 0.0204687 0.0
0.0398437 0.0204687 0.0
0.0401563 0.0204687 0.0
0.0404687 0.0204687 0.0
0.0407812 0.0204687 0.0
0.0410937 0.0204687 0.0
0.0414062 0.0204687 0.0
0.0417187 0.0204687 0.0
0.0420312 0.0204687 0.0
0.0423437 0.0204687 0.0
0.0426562 0.0204687 0.0
0.0429688 0.0204687 0.0
0.0432813 0.0204687 0.0
0.0435938 0.0204687 0.0
0.0439063 0.0204687 0.0
0.0442188 0.0204687 0.0
0.0445313 0.0204687 0.0
0.0448438 0.0204687 0.0
0.0451562 0.0204687 0.0
0.0454688 0.0204687 0.0
0.0457813 0.0204687 0.0
0.0460938 0.0204687 0.0
0.0464062 0.0204687 0.0
0.0467188 0.0204687 0.0
0.0470312 0.0204687 0.0
0.0473438 0.0204687 0.0
0.0476563 0.0204687 0.0
0.0479687 0.0204687 0.0
0.0482813 0.0204687 0.0
0.0485938 0.0204687 0.0
0.0489062 0.0204687 0.0
0.0492188 0.0204687 0.0
0.0495313 0.0204687 0.0
0.0498437 0.0204687 0.0
0.0501562 0.0204687 0.0
0.0504688 0.0204687 0.0
0.0507812 0.0204687 0.0
0.0510938 0.0204687 0.0
0.0514063 0.0204687 0.0
0.0517187 0.0204687 0.0
0.0520313 0.0204687 0.0
0.0523438 0.0204687 0.0
0.0526563 0.0204687 0.0
0.0529687 0.0204687 0.0
0.0532813 0.0204687 0.0
0.0535938 0.0204687 0.0
0.0539063 0.0204687 0.0
0.0542187 0.0204687 0.0
0.0545313 0.0204687 0.0
0.0548438 0.0204687 0.0
0.0551563 0.0204687 0.0
0.0554688 0.0204687 0.0
0.0557812 0.0204687 0.0
0.0560937 0.0204687 0.0
0.0564062 0.0204687 0.0
0.0567188 0.0204687 0.0
0.0570313 0.0204687 0.0
0.0573438 0.0204687 0.0
0.0576562 0.0204687 0.0
0.0579687 0.0204687 0.0
0.0582813 0.0204687 0.0
0.0585938 0.0204687 0.0
0.0589063 0.0204687 0.0
0.0592188 0.0204687 0.0
0.0595313 0.0204687 0.0
0.0598438 0.0204687 0.0
0.0601563 0.0204687 0.0
0.0604688 0.0204687 0.0
0.0607813 0.0204687 0.0
0.0610938 0.0204687 0.0
0.0614062 0.0204687 0.0
0.0617188 0.0204687 0.0
0.0620313 0.0204687 0.0
0.0623438 0.0204687 0.0
0.0626562 0.0204687 0.0
0.0629688 0.0204687 0.0
0.0632813 0.0204687 0.0
0.0635938 0.0204687 0.0
0.0639062 0.0204687 0.0
0.0642187 0.0204687 0.0
0.0645313 0.0204687 0.0
0.0648438 0.0204687 0.0
0.0651562 0.0204687 0.0
0.0654688 0.0204687 0.0
0.0657812 0.0204687 0.0
0.0660937 0.0204687 0.0
0.0664062 0.0204687 0.0
0.0667188 0.0204687 0.0
0.0670313 0.0204687 0.0
0.0673438 0.0204687 0.0
0.0676563 0.0204687 0.0
0.0679688 0.0204687 0.0
0.0682813 0.0204687 0.0
0.0685938 0.0204687 0.0
0.0689063 0.0204687 0.0
0.0692187 0.0204687 0.0
0.0695313 0.0204687 0.0
0.0698438 0.0204687 0.0
0.0701563 0.0204687 0.0
0.0704687 0.0204687 0.0
0.0707813 0.0204687 0.0
0.0710938 0.0204687 0.0
0.0714063 0.0204687 0.0
0.0717187 0.0204687 0.0
0.0720313 0.0204687 0.0
0.0723437 0.0204687 0.0
0.0726563 0.0204687 0.0
0.0729687 0.0204687 0.0
0.0732813 0.0204687 0.0
0.0735938 0.0204687 0.0
0.0739063 0.0204687 0.0
0.0742188 0.0204687 0.0
0.0745313 0.0204687 0.0
0.0748438 0.0204687 0.0
0.0751563 0.0204687 0.0
0.0754688 0.0204687 0.0
0.0757812 0.0204687 0.0
0.0760938 0.0204687 0.0
0.0764063 0.0204687 0.0
0.0767187 0.0204687 0.0
0.0770313 0.0204687 0.0
0.0773438 0.0204687 0.0
0.0776562 0.0204687 0.0
0.0779688 0.0204687 0.0
0.0782813 0.0204687 0.0
0.0785938 0.0204687 0.0
0.0789063 0.0204687 0.0
0.0792188 0.0204687 0.0
0.0795312 0.0204687 0.0
0.0798438 0.0204687 0.0
0.0201562 0.0207812 0.0
0.0204687 0.0207812 0.0
0.0207812 0.0207812 0.0
0.0210937 0.0207812 0.0
0.0214062 0.0207812 0.0
0.0217187 0.0207812 0.0
0.0220312 0.0207812 0.0
0.0223437 0.0207812 0.0
0.0226562 0.0207812 0.0
0.0229687 0.0207812 0.0
0.0232812 0.0207812 0.0
0.0235937 0.0207812 0.0
0.0239062 0.0207812 0.0
0.0242187 0.0207812 0.0
0.0245312 0.0207812 0.0
0.0248437 0.0207812 0.0
0.0251562 0.0207812 0.0
0.0254687 0.0207812 0.0
0.0257812 0.0207812 0.0
0.0260937 0.0207812 0.0
0.0264062 0.0207812 0.0
0.0267187 0.0207812 0.0
0.0270312 0.0207812 0.0
0.0273438 0.0207812 0.0
0.0276562 0.0207812 0.0
0.0279687 0.0207812 0.0
0.0282813 0.0207812 0.0
0.0285937 0.0207812 0.0
[...]
POINT_DATA 36864
SCALARS Intensity float 1
LOOKUP_TABLE default
0.381577
0.387229
0.250349
0.164836
0.401535
0.344806
0.245088
0.399763
0.388958
0.267544
0.221159
0.37653
0.486537
0.293296
0.210872
0.296346
0.356692
0.427573
0.442056
0.25828
0.23117
0.281569
0.420036
0.353418
0.305731
0.379805
0.236736
0.279218
0.175856
0.274257
0.34908
0.291612
0.317931
0.34436
0.281151
0.393167
0.175527
0.60435
0.340452
0.330977
0.318193
0.385771
0.227511
0.418669
0.385783
0.296434
0.356446
0.262326
0.366387
0.160714
0.426305
0.298311
0.313609
0.372136
0.313182
0.528871
0.26499
0.214904
0.355564
0.476319
0.249595
0.292714
0.376943
0.383442
0.177523
0.29383
0.341203
0.33384
0.29482
0.269954
0.290694
0.39156
0.382281
0.207974
0.543614
0.419495
0.252577
0.233989
0.295247
0.436468
0.399967
0.40151
0.417607
0.196855
0.332561
0.363511
0.381515
0.218874
0.206022
0.0856213
0.365413
0.305769
0.340891
0.335275
0.298993
0.413458
0.289568
0.260618
0.287641
0.356858
0.511177
0.385965
0.237429
0.28291
0.304239
0.32275
0.40246
0.249978
0.297787
0.297303
0.32024
0.145745
0.331558
0.270481
0.335815
0.305478
0.539211
0.334955
0.496747
0.172158
0.226287
0.212527
0.345457
0.239372
0.0711074
0.387842
0.444553
0.259098
0.162263
0.291665
0.380897
0.140086
0.23979
0.410111
0.222699
0.421107
0.22809
0.0744906
0.161427
0.0532601
0.37168
0.356458
0.348408
0.322855
0.23718
0.458279
0.41209
0.391365
0.195073
0.204777
0.529422
0.277194
0.372284
0.184077
0.505268
0.353514
0.222219
0.263207
0.378576
0.278851
0.231754
0.226377
0.340226
0.129653
0.150758
0.254655
0.114275
0.389024
0.2712
0.42179
0.340647
0.147836
0.356536
0.446983
0.484288
0.373044
0.229351
0.374171
0.255134
0.0739508
0.249532
0.288626
0.40436
0.297725
0.324551
0.281781
0.378805
0.354858
0.367785
0.334404
0.358038
0.129538
0.300691
0.530036
0.247567
0.183908
0.420667
0.264221
0.272576
0.386153
0.440376
0.430856
0.262119
0.370683
0.387067
0.326384
0.418358
0.335215
0.35352
0.244624
0.106263
0.351733
0.191171
0.207352
0.250758
0.250163
0.448815
0.304055
0.37347
0.312971
0.438305
0.302407
0.429312
0.241336
0.346018
0.463889
0.328898
0.482683
0.413992
0.409892
0.427723
0.262519
0.322566
0.280987
0.44832
0.275695
0.367975
0.325569
0.235781
0.285953
0.448176
0.372809
0.342913
0.225738
0.325039
0.244228
0.412014
0.35156
0.426131
0.434513
0.355903
0.259878
0.420547
0.355537
0.321534
0.149663
0.404696
0.406478
0.360542
0.153852
0.32105
0.506567
0.25975
0.295338
0.164554
0.401996
0.241994
0.414796
0.189929
0.322521
0.244282
0.162242
0.28137
0.268073
0.258348
0.380639
0.226182
0.0723884
0.263845
0.485467
0.381391
0.130875
0.47668
0.296946
0.363862
0.281098
0.134095
0.548495
0.344915
0.465383
0.347308
0.361398
0.184762
0.268596
0.365268
0.388049
0.134162
0.263964
0.348263
0.293898
0.173094
0.438372
0.239316
0.236026
0.303803
0.321632
0.364916
0.308463
0.163351
0.361357
0.390827
0.43351
0.238456
0.27182
0.188158
0.190504
0.242165
0.351285
0.267669
0.279245
0.360074
0.21148
0.43792
0.274358
0.225282
0.243315
0.315304
0.340266
0.408361
0.405104
0.341545
0.236711
0.384989
0.181603
0.284509
0.417614
0.354114
0.249741
0.219457
0.338423
0.440431
0.461127
0.404209
0.346172
0.31688
0.469164
0.479972
0.21142
0.275479
0.356162
0.246548
0.484499
0.308378
0.222601
0.422703
0.267348
0.258414
0.186512
0.467674
0.308497
0.231476
0.209661
0.232447
0.290957
0.242674
0.43947
0.254013
0.284958
0.202896
0.390271
0.311852
0.375144
0.226925
0.208433
0.310462
0.447854
0.478538
0.313055
0.122926
0.380438
0.175832
0.362722
0.310564
0.272256
0.129136
0.318071
0.239692
0.279409
0.286511
0.293749
0.245864
0.224643
0.513225
0.278621
0.250392
0.269054
0.149927
0.342479
0.364848
0.401245
0.403428
0.50077
0.315472
0.309791
0.186337
0.345469
0.346366
0.196146
0.334038
0.257273
0.397267
0.247173
0.33093
0.358309
0.421816
0.504117
0.151554
0.201113
0.331556
0.290942
0.188331
0.26615
0.34635
0.338717
0.360755
0.335299
0.304175
0.333296
0.461977
0.454138
0.351269
0.201687
0.228362
0.402864
0.187239
0.230778
0.287706
0.269344
0.213305
0.39588
0.250674
0.246403
0.283867
0.288711
0.418464
0.335192
0.275594
0.327726
0.298901
0.28935
0.221816
0.432458
0.504615
0.204925
0.233034
0.298525
0.140628
0.178573
0.437067
0.217081
0.393421
0.391609
0.206455
0.293587
0.301025
0.478558
0.344569
0.281759
0.245704
0.25324
0.388698
0.350082
0.271873
0.575087
0.188161
0.446111
0.459126
0.238362
0.27813
0.211472
0.367392
0.120029
0.361204
0.328683
0.437181
0.307951
0.25032
0.252204
0.244524
0.364876
0.222691
0.190931
0.401514
0.280641
0.109424
0.254882
0.231776
0.466463
0.263265
0.281575
0.238139
0.371636
0.202924
0.23034
0.301861
0.354426
0.33435
0.27671
0.358095
0.313009
0.437508
0.340166
0.248636
0.372462
0.222026
0.359802
0.31187
0.498403
0.247387
0.409973
0.249569
0.329666
0.319799
0.126476
0.152051
0.244526
0.207844
0.48924
0.312448
0.404189
0.34659
0.283209
0.245662
0.246437
0.308709
0.285504
0.330051
0.297669
0.330385
0.334182
0.371481
0.427662
0.302242
0.172823
0.296775
0.185617
0.462525
0.281667
0.262715
0.122856
0.254294
0.309054
0.403103
0.276887
0.495161
0.334539
0.254108
0.451273
0.310495
0.242414
0.258382
0.308516
0.412884
0.359348
0.385121
0.219536
0.338446
0.356356
0.143016
0.51324
0.114845
0.181567
0.243398
0.205311
0.187872
0.183736
0.38808
0.165558
0.187666
0.497434
0.215427
0.307595
0.287545
0.42592
0.147259
0.420161
0.427733
0.248097
0.456062
0.390519
0.383247
0.351707
0.504718
0.224737
0.28546
0.242552
0.174874
0.424367
0.501299
0.315408
0.413639
0.185757
0.284841
0.207532
0.265465
0.186395
0.274963
0.323796
0.316018
0.272603
0.333356
0.205453
0.11147
0.178073
0.480878
0.385813
0.40127
0.407679
0.378375
0.35921
0.186271
0.318378
0.43074
0.324376
0.378702
0.484208
0.547179
0.308164
0.315322
0.40404
0.292658
0.132124
0.332554
0.403176
0.168199
0.338838
0.236836
0.348395
0.354831
0.383654
0.153734
0.350535
0.308663
0.0695993
0.423206
0.490829
0.275205
0.258652
0.457262
0.356916
0.349033
0.283426
0.164863
0.390372
0.421888
0.492539
0.392318
0.419914
0.414944
0.1652
0.415506
0.440914
0.229716
0.368517
0.345929
0.317279
0.205715
0.244418
0.312922
0.212614
0.42315
0.206149
0.0710706
0.272333
0.363944
0.27146
0.271817
0.339533
0.320753
0.433649
0.390547
0.254559
0.258212
0.341309
0.236788
0.282791
0.24475
0.262244
0.399137
0.344126
0.301704
0.305405
0.26738
0.349565
0.296715
0.250178
0.229783
0.203278
0.344377
0.389816
0.243707
0.39261
0.403226
0.271187
0.305968
0.187193
0.385
0.279298
0.358835
0.282002
0.288662
0.234108
0.402538
0.316269
0.364057
0.403506
0.431343
0.525307
0.209831
0.293938
0.126431
0.250195
0.279981
0.216326
0.332938
0.195156
0.253749
0.390859
0.420724
0.147909
0.129382
0.39548
0.361223
0.23347
0.594837
0.248047
0.357239
0.36892
0.171663
0.389937
0.206836
0.322207
0.133202
0.314671
0.419454
0.227395
0.384031
0.253185
0.218207
0.481789
0.276684
0.408337
0.355506
0.403485
0.177909
0.450966
0.382053
0.300468
0.449416
0.322322
0.276686
0.419775
0.253424
0.150264
0.167945
-0.0531835
0.282717
0.246536
0.3629
0.252196
0.279091
0.25958
0.241997
0.3059
0.299544
0.315476
0.265509
0.290452
0.439903
0.286751
0.637846
0.461066
0.314657
0.433164
0.153271
0.264145
0.29037
0.352116
0.135586
0.324195
0.366291
0.166771
0.301603
0.348298
0.262768
0.429383
0.175654
0.279963
0.32525
0.406423
0.352302
0.218761
0.191557
0.422143
0.323006
0.0122697
0.418425
0.341248
0.251943
0.323186
0.300007
0.284453
0.275352
0.157529
0.410626
0.271926
0.235931
0.31907
0.43566
0.130397
0.266391
0.263057
0.16557
0.524884
0.408948
0.275089
0.281617
0.326077
0.406384
0.370713
0.403495
0.346089
0.27271
0.201014
0.325152
0.470972
0.189996
0.332895
0.317755
0.213076
0.384054
0.290089
0.400188
0.498482
0.412263
0.318131
0.242287
0.32769
0.149277
0.484713
0.36119
0.258706
0.257555
0.305929
0.126305
0.238868
0.330848
0.400229
0.348914
0.317038
0.374757
0.488071
0.206582
0.334273
0.341317
0.149613
0.0444019
0.239943
0.309322
0.249757
0.235588
0.215023
0.30067
0.414749
0.21655
0.333521
0.198788
0.293928
0.366957
0.491296
0.314261
0.487055
0.183218
0.325193
0.310424
0.455431
0.159489
0.357013
0.487863
0.280692
0.431417
0.379788
0.280822
0.275112
0.312863
0.329246
0.379065
0.316988
0.152431
0.188245
0.373579
0.356897
0.303755
0.348182
0.457269
0.238529
0.210172
0.327019
0.271205
0.305654
0.32693
0.330063
0.244992
0.31888
0.206678
0.256745
0.256302
0.365973
0.200876
0.187792
0.337498
0.28241
0.238844
0.283926
0.382305
0.319663
0.241248
0.274594
0.38119
0.252301
0.314848
0.418095
0.347541
0.539979
0.142975
0.32831
0.403052
0.268828
0.222129
0.244413
0.155802
0.172077
0.424127
0.288336
0.299676
0.232617
0.553997
0.15263
0.268018
0.134229
0.235178
0.360522
0.313177
0.266918
0.332153
0.444662
0.29849
0.122292
0.350236
0.442403
0.135521
0.21475
0.414621
0.200564
0.177625
0.271454
0.348579
0.188691
0.403863
0.349114
0.16893
0.235135
0.34866
0.367979
0.206833
0.31915
0.345492
0.24075
0.288236
0.283043
0.337335
0.331303
0.315396
0.363765
0.478022
0.471392
0.211748
0.25874
0.351678
0.284657
0.349727
0.362986
0.294969
0.290119
0.120939
0.520634
0.34005
0.341973
0.18942
0.346171
0.340249
0.413821
0.188797
0.259677
0.243267
0.438211
0.408573
0.130357
0.287159
0.181152
0.295767
0.140012
0.164652
0.305922
0.4232
0.398541
0.236688
0.256722
0.293874
0.342994
0.24475
0.38527
0.497825
0.249262
0.363924
0.355353
0.216412
0.258618
0.253191
0.205967
0.130095
0.413594
0.249916
0.430669
0.167361
0.377574
0.240176
0.273925
0.247105
0.264971
0.253034
0.387857
0.221737
0.269244
0.231156
0.267621
0.338185
0.368575
0.370388
0.143583
0.234461
0.235931
0.411398
0.112452
0.420657
0.385304
0.340035
0.33078
0.349134
0.250716
0.299263
0.352874
0.461273
0.300031
0.478137
0.403074
0.303969
0.297419
0.440105
0.295759
0.301908
0.213334
0.271321
0.343584
0.311468
0.302596
0.473559
0.318751
0.260824
0.305073
0.107081
0.206488
0.376178
0.468993
0.343929
0.28021
0.16154
0.360601
0.412617
0.211507
0.271654
0.197066
0.188557
0.372185
0.308545
0.297026
0.23473
0.216253
0.2708
0.431141
0.367374
0.31723
0.392623
0.14597
0.317566
0.226021
0.376456
0.224319
0.203272
0.201003
0.198574
0.469913
0.203393
0.40489
0.38869
0.263883
0.326267
0.189824
0.375601
0.462701
0.245813
0.312252
0.282026
0.25151
0.308683
0.242191
0.453602
0.166181
0.198253
0.329597
0.169719
0.331331
0.179507
0.30217
0.31242
0.389871
0.495637
0.262054
0.353918
0.339028
0.469865
0.287614
0.444808
0.399879
0.277779
0.542692
0.451289
0.196899
0.251078
0.320752
0.18251
0.171506
0.358991
0.481325
0.427603
0.47688
0.46271
0.28999
0.542637
0.344712
0.423505
0.439806
0.309804
0.165358
0.344187
0.193655
0.369267
0.412115
0.204009
0.333593
0.106542
0.439288
0.300719
0.176012
0.281192
0.351905
0.271663
0.357597
0.38991
0.334406
0.248437
0.266013
0.230732
0.308456
0.43366
0.270027
0.285652
0.342556
0.210319
0.448471
0.369569
0.457128
0.250236
0.322178
0.257523
0.296523
0.249471
0.42436
0.23058
0.246108
0.395345
0.363041
0.436143
0.350066
0.306601
0.45085
0.240875
0.398388
0.273754
0.212532
0.306748
0.455763
0.164474
0.149518
0.49107
0.263285
0.408806
0.271701
0.363258
0.125292
0.391574
0.448477
0.327677
0.307299
0.20555
0.334159
0.259346
0.371204
0.469403
0.202839
0.390185
0.36694
0.169322
0.369418
0.249925
0.267384
0.15654
0.209444
0.257089
0.152162
0.415134
0.578508
0.223409
0.20519
0.27082
0.299319
0.232282
0.280599
0.314597
0.472756
0.349756
0.380526
0.446119
0.397722
0.248618
0.343732
0.268986
0.423881
0.275322
0.33562
0.346343
0.297286
0.357132
0.229513
0.398075
0.353741
0.244199
0.365409
0.210789
0.278978
0.350704
0.239101
0.164884
0.390852
0.383125
0.467739
0.283964
0.158026
0.525007
0.253028
0.368242
0.158464
0.227172
0.337201
0.283563
0.269862
0.188045
0.357037
0.36337
0.427353
0.244158
0.135744
0.317527
0.271451
0.314561
0.266661
0.350244
0.329016
0.298274
0.24074
0.324865
0.499406
0.449987
0.30799
0.356547
0.351258
0.234414
0.48861
0.411044
0.374121
0.236605
0.148066
0.174483
0.342892
0.0792609
0.336725
0.131772
0.417076
0.372731
0.29429
0.46178
0.268327
0.302783
0.274299
0.339528
0.539875
0.389153
0.28493
0.231537
0.524462
0.227615
0.409806
0.359338
0.358818
0.371213
0.487974
0.424423
0.338697
0.392289
0.190538
0.484619
0.154559
0.177688
0.167148
0.192283
0.220921
0.100296
0.32539
0.283334
0.331914
0.411893
0.482918
0.387194
0.327018
0.31558
0.271932
0.300678
0.240154
0.36557
0.212826
0.375291
0.460246
0.251556
0.219373
0.46001
0.286007
0.25557
0.276731
0.371151
0.287953
0.225925
0.259805
0.357301
0.349036
0.333535
0.273879
0.307219
0.413054
0.20987
0.241047
0.436989
0.416457
0.308174
0.358637
0.448541
0.333209
0.304875
0.343083
0.209783
0.398747
0.397875
0.359635
0.395237
0.215927
0.262335
0.343441
0.146778
0.276507
0.281142
0.299561
0.220647
0.494191
0.210305
0.501766
0.431404
0.341178
0.32456
0.383647
0.381718
0.30022
0.329943
0.287358
0.154193
0.2565
0.269958
0.262866
0.3492
0.255288
0.315425
0.232029
0.559174
0.361685
0.250169
0.332416
0.367137
0.470461
0.162271
0.379171
0.276116
0.318645
0.366136
0.291994
0.300177
0.339871
0.37591
0.304211
0.160318
0.302324
0.394958
0.105271
0.386867
0.260596
0.354446
0.0542166
0.416631
0.373816
0.395285
0.345022
0.37372
0.237335
0.377139
0.350669
0.365903
0.416817
0.147566
0.326668
0.249436
0.214677
0.173389
0.417482
0.129884
0.337989
0.44798
0.301302
0.343149
0.283944
0.315062
0.232018
0.538876
0.346989
0.322326
0.190655
0.399076
0.489932
0.276012
0.284384
0.40032
0.331395
0.225655
0.382098
0.311788
0.475405
0.257799
0.465463
0.202893
0.275118
0.323631
0.0969727
0.478199
0.322469
0.410946
0.305583
0.292223
0.412846
0.34712
0.296711
0.290525
0.169089
0.142748
0.282376
0.284914
0.446999
0.356825
0.233097
0.421463
0.348418
0.245766
0.249252
0.261891
0.310025
0.340212
0.139146
0.464999
0.348062
0.366176
0.431038
0.223636
0.477443
0.120136
0.243974
0.350213
0.489315
0.300565
0.245386
0.288922
0.378769
0.116021
0.373791
0.416366
0.419977
0.367175
0.509082
0.174007
0.43952
0.264686
0.427992
0.32547
0.581794
0.504675
0.302351
0.170969
0.247632
0.363321
0.370745
0.144274
0.35613
0.181555
0.143772
0.353437
0.350767
0.289469
0.335344
0.32868
0.250353
0.376918
0.41393
0.208401
0.131696
0.256335
0.222786
0.193051
0.34343
0.379862
0.378538
0.35967
0.403834
0.150612
0.190439
0.346889
0.387043
0.484952
0.345067
0.36384
0.185708
0.321531
0.298106
0.310719
0.3005
0.241107
0.349693
0.2941
0.336633
0.253814
0.416491
0.391443
0.316216
0.386143
0.46388
0.412366
0.401361
0.243886
0.335907
0.30226
0.223134
0.287
0.211726
0.135685
0.334425
0.161724
0.324774
0.518049
0.304114
0.302054
0.19313
0.323151
0.280336
0.194966
0.290568
0.479266
0.245945
0.131145
0.292866
0.406538
0.400981
0.294591
0.286347
0.182939
0.301187
0.36127
0.198564
0.38981
0.239761
0.159699
0.305994
0.330933
0.544613
0.40369
0.0765773
0.384908
0.211762
0.168767
0.314775
0.2876
0.23149
0.412375
0.418179
0.11685
0.379583
0.333821
0.298072
0.111638
0.193331
0.215391
0.364842
0.396562
0.353248
0.348643
0.318336
0.414175
0.343864
0.321053
0.511854
0.205346
0.374959
0.248596
0.360544
0.417512
0.34958
0.459082
0.286987
0.300674
0.424703
0.518296
0.157776
0.211816
0.307007
0.355254
0.32199
0.179347
0.40013
0.464871
0.225787
0.435857
0.178393
0.374834
0.388542
0.305477
0.112689
0.365037
0.239137
0.17715
0.146535
0.448489
0.535935
0.469308
0.164823
0.350939
0.453952
0.205396
0.164989
0.362261
0.262299
0.216096
0.394935
0.290943
0.350652
0.266846
0.333206
0.257974
0.296742
0.377768
0.309309
0.219737
0.33307
0.383168
0.354262
0.477923
0.152796
0.263756
0.398204
0.289721
0.303709
0.28466
0.189282
0.32191
0.218016
0.388934
0.323993
0.276215
0.436296
0.234857
0.277919
0.286735
0.148533
0.149228
0.147647
0.288092
0.258697
0.287895
0.310281
0.418032
0.33686
0.36048
0.257776
0.150655
0.254665
0.270426
0.296685
0.253471
0.389383
0.332366
0.448132
0.148482
0.264754
0.45315
0.329774
0.291962
0.315895
0.402275
0.219285
0.338969
0.291337
0.259195
0.371199
0.388019
0.214799
0.230707
0.288285
0.290377
0.406674
0.275432
0.249526
0.327852
0.310438
0.567943
0.357841
0.24873
0.451432
0.208338
0.426362
0.16225
0.372683
0.3239
0.0785953
0.370622
0.265933
0.12421
0.177301
0.322043
0.474795
0.551229
0.164703
0.461082
0.276784
0.316988
0.22882
0.243986
0.169833
0.265967
0.237547
0.168751
0.249906
0.250525
0.411978
0.225477
0.334025
0.208
0.368177
0.0786491
0.310451
0.405559
0.143654
0.465064
0.242486
0.277223
0.508732
0.327502
0.435193
0.266653
0.454172
0.348443
0.378888
0.341522
0.419383
0.388041
0.322656
0.251294
0.235764
0.252835
0.303674
0.230412
0.354388
0.381301
0.428942
0.199669
0.30123
0.163791
0.270445
0.288603
0.361355
0.284321
0.386546
0.244742
0.374978
0.104791
0.447709
0.30064
0.309258
0.237573
0.400574
0.309198
0.415119
0.212869
0.206883
0.305231
0.408793
0.0529401
0.212957
0.226448
0.307936
0.245088
0.320966
0.486328
0.0836889
0.337766
0.262321
0.240874
0.237913
0.4822
0.364097
0.215183
0.361323
0.413916
0.142707
0.305692
0.405895
0.330837
0.354936
0.405008
0.43292
0.277193
0.186438
0.187304
0.485785
0.283329
0.400906
0.270818
0.2874
0.478822
0.221257
0.169172
0.283857
0.225551
0.368761
0.338474
0.233213
0.471376
0.388446
0.17726
0.295219
0.332782
0.46996
0.479287
0.239519
0.209083
0.343137
0.318801
0.40951
0.368046
0.297657
0.31718
0.268419
0.317461
0.538394
0.129287
0.0368429
0.221901
0.225884
0.149425
0.283684
0.350502
0.31582
0.162525
0.346783
0.290725
0.259783
0.18322
0.32199
0.205425
0.25085
0.435418
0.281504
0.31666
0.293187
0.48252
0.211334
0.432367
0.415026
0.202449
0.255688
0.45947
0.263565
0.380234
0.231684
0.294558
0.342688
0.188748
0.299756
0.38111
0.180349
0.35703
0.336371
0.329392
0.358038
0.344814
0.37357
0.219501
0.314463
0.164985
0.286981
0.403902
0.244333
0.228326
0.275539
0.210501
0.330598
0.348394
0.250604
0.363935
0.407293
0.468519
0.180646
0.38458
0.339257
0.376786
0.291233
0.194396
0.232343
0.260412
0.479746
0.265574
0.394409
0.198738
0.395564
0.318529
0.381915
0.156374
0.366985
0.470044
0.29942
0.237665
0.501425
0.436992
0.300863
0.164414
0.325881
0.399305
0.154792
0.326062
0.395402
0.377197
0.26864
0.187865
0.402537
0.262917
0.150297
0.299498
0.12868
0.299321
0.280502
0.394976
0.140253
0.22893
0.325904
0.450236
0.400835
0.401371
0.366216
0.491254
0.405913
0.32558
0.311443
0.391833
0.204992
0.305792
0.435868
0.236504
0.323051
0.325482
0.191077
0.290821
0.48864
0.419857
0.410216
0.15557
0.286588
0.366242
0.411438
0.245993
0.21103
0.374979
0.407703
0.251799
0.323425
0.314898
0.241524
0.348621
0.270116
0.296017
0.0931491
0.358606
0.292947
0.442033
0.437727
0.341088
0.235126
0.221267
0.189406
0.370134
0.141813
0.243794
0.409245
0.497722
0.388253
0.201013
0.418026
0.436275
0.583873
0.266318
0.3575
0.198582
0.396056
0.189557
0.0103112
0.676675
0.155387
0.307629
0.376354
0.252918
0.468145
0.258353
0.404221
0.370051
0.442955
0.428078
0.322852
0.441688
0.0802136
0.191433
0.242722
0.333999
0.265929
0.442616
0.390477
0.306498
0.191622
0.266035
0.319632
0.503084
0.466672
0.24082
0.155373
0.182201
0.362359
0.187812
0.241513
0.410435
0.310283
0.242143
0.111086
0.334105
0.265434
0.186399
0.324498
0.255481
0.286565
0.325271
0.107931
0.465594
0.291162
0.284344
0.385783
0.298928
0.313359
0.288949
0.48775
0.26801
0.319479
0.375736
0.447639
0.344185
0.336614
0.354582
0.229184
0.256905
0.393455
0.219
0.411958
0.297752
0.164725
0.167101
0.438678
0.327167
0.151433
0.418403
0.239235
0.223059
0.211183
0.388741
0.269689
0.309548
0.3046
0.0919143
0.299639
0.329529
0.404614
0.254302
0.19035
0.269713
0.357022
0.31403
0.367861
0.459508
0.242455
0.168382
0.419133
0.353489
0.302241
0.245036
0.327737
0.400966
0.231308
0.292581
0.272681
0.24689
0.36216
0.310808
0.220606
0.413425
0.297548
0.317403
0.234901
0.429815
0.401692
0.295898
0.152766
0.323369
0.294691
0.403757
0.236752
0.198194
0.213592
0.214159
0.379507
0.307398
0.191385
0.275323
0.365358
0.272784
0.35103
0.403651
0.318887
0.270088
0.321889
0.363016
0.229356
0.11914
0.25429
0.288947
0.0380711
0.171223
0.269814
0.363109
0.270858
0.192433
0.302731
0.183252
0.162076
0.18393
0.369413
0.394197
0.257937
0.373486
0.235826
0.268727
0.456705
0.304405
0.148108
0.552108
0.154162
0.372442
0.116072
0.21059
0.191181
0.202586
0.317142
0.357322
0.365724
0.175247
0.223173
0.405966
0.283481
0.375883
0.429104
0.291463
0.225021
0.194518
0.234417
0.386219
0.248902