# vtk DataFile Version 2.0
Vtkoutput example
ASCII

DATASET UNSTRUCTURED_GRID
POINTS 36864 float
0.0201562 0.0201562 0.0
0.0204687 0.0201562 0.0
0.0207812 0.0201562 0.0
0.0210937 0.0201562 0.0
0.0214062 0.0201562 0.0
0.0217187 0.0201562 0.0
0.0220312 0.0201562 0.0
0.0223437 0.0201562 0.0
0.0226562 0.0201562 0.0
0.0229687 0.0201562 0.0
0.0232812 0.0201562 0.0
0.0235937 0.0201562 0.0
0.0239062 0.0201562 0.0
0.0242187 0.0201562 0.0
0.0245312 0.0201562 0.0
0.0248437 0.0201562 0.0
0.0251562 0.0201562 0.0
0.0254687 0.0201562 0.0
0.0257812 0.0201562 0.0
0.0260937 0.0201562 0.0
0.0264062 0.0201562 0.0
0.0267187 0.0201562 0.0
0.0270312 0.0201562 0.0
0.0273438 0.0201562 0.0
0.0276562 0.0201562 0.0
0.0279687 0.0201562 0.0
0.0282813 0.0201562 0.0
0.0285937 0.0201562 0.0
0.0289062 0.0201562 0.0
0.0292187 0.0201562 0.0
0.0295312 0.0201562 0.0
0.0298437 0.0201562 0.0
0.0301563 0.0201562 0.0
0.0304687 0.0201562 0.0
0.0307812 0.0201562 0.0
0.0310937 0.0201562 0.0
0.0314062 0.0201562 0.0
0.0317188 0.0201562 0.0
0.0320312 0.0201562 0.0
0.0323437 0.0201562 0.0
0.0326562 0.0201562 0.0
0.0329688 0.0201562 0.0
0.0332812 0.0201562 0.0
0.0335937 0.0201562 0.0
0.0339062 0.0201562 0.0
0.0342187 0.0201562 0.0
0.0345312 0.0201562 0.0
0.0348437 0.0201562 0.0
0.0351562 0.0201562 0.0
0.0354688 0.0201562 0.0
0.0357813 0.0201562 0.0
0.0360938 0.0201562 0.0
0.0364063 0.0201562 0.0
0.0367188 0.0201562 0.0
0.0370313 0.0201562 0.0
0.0373438 0.0201562 0.0
0.0376563 0.0201562 0.0
0.0379687 0.0201562 0.0
0.0382812 0.0201562 0.0
0.0385938 0.0201562 0.0
0.0389062 0.0201562 0.0
0.0392187 0.0201562 0.0
0.0395313 0.0201562 0.0
0.0398437 0.0201562 0.0
0.0401563 0.0201562 0.0
0.0404687 0.0201562 0.0
0.0407812 0.0201562 0.0
0.0410937 0.0201562 0.0
0.0414062 0.0201562 0.0
0.0417187 0.0201562 0.0
0.0420312 0.0201562 0.0
0.0423437 0.0201562 0.0
0.0426562 0.0201562 0.0
0.0429688 0.0201562 0.0
0.0432813 0.0201562 0.0
0.0435938 0.0201562 0.0
0.0439063 0.0201562 0.0
0.0442188 0.0201562 0.0
0.0445313 0.0201562 0.0
0.0448438 0.0201562 0.0
0.0451562 0.0201562 0.0
0.0454688 0.0201562 0.0
0.0457813 0.0201562 0.0
0.0460938 0.0201562 0.0
0.0464062 0.0201562 0.0
0.0467188 0.0201562 0.0
0.0470312 0.0201562 0.0
0.0473438 0.0201562 0.0
0.0476563 0.0201562 0.0
0.0479687 0.0201562 0.0
0.0482813 0.0201562 0.0
0.0485938 0.0201562 0.0
0.0489062 0.0201562 0.0
0.0492188 0.0201562 0.0
0.0495313 0.0201562 0.0
0.0498437 0.0201562 0.0
0.0501562 0.0201562 0.0
0.0504688 0.0201562 0.0
0.0507812 0.0201562 0.0
0.0510938 0.0201562 0.0
0.0514063 0.0201562 0.0
0.0517187 0.0201562 0.0
0.0520313 0.0201562 0.0
0.0523438 0.0201562 0.0
0.0526563 0.0201562 0.0
0.0529687 0.0201562 0.0
0.0532813 0.0201562 0.0
0.0535938 0.0201562 0.0
0.0539063 0.0201562 0.0
0.0542187 0.0201562 0.0
0.0545313 0.0201562 0.0
0.0548438 0.0201562 0.0
0.0551563 0.0201562 0.0
0.0554688 0.0201562 0.0
0.0557812 0.0201562 0.0
0.0560937 0.0201562 0.0
0.0564062 0.0201562 0.0
0.0567188 0.0201562 0.0
0.0570313 0.0201562 0.0
0.0573438 0.0201562 0.0
0.0576562 0.0201562 0.0
0.0579687 0.0201562 0.0
0.0582813 0.0201562 0.0
0.0585938 0.0201562 0.0
0.0589063 0.0201562 0.0
0.0592188 0.0201562 0.0
0.0595313 0.0201562 0.0
0.0598438 0.0201562 0.0
0.0601563 0.0201562 0.0
0.0604688 0.0201562 0.0
0.0607813 0.0201562 0.0
0.0610938 0.0201562 0.0
0.0614062 0.0201562 0.0
0.0617188 0.0201562 0.0
0.0620313 0.0201562 0.0
0.0623438 0.0201562 0.0
0.0626562 0.0201562 0.0
0.0629688 0.0201562 0.0
0.0632813 0.0201562 0.0
0.0635938 0.0201562 0.0
0.0639062 0.0201562 0.0
0.0642187 0.0201562 0.0
0.0645313 0.0201562 0.0
0.0648438 0.0201562 0.0
0.0651562 0.0201562 0.0
0.0654688 0.0201562 0.0
0.0657812 0.0201562 0.0
0.0660937 0.0201562 0.0
0.0664062 0.0201562 0.0
0.0667188 0.0201562 0.0
0.0670313 0.0201562 0.0
0.0673438 0.0201562 0.0
0.0676563 0.0201562 0.0
0.0679688 0.0201562 0.0
0.0682813 0.0201562 0.0
0.0685938 0.0201562 0.0
0.0689063 0.0201562 0.0
0.0692187 0.0201562 0.0
0.0695313 0.0201562 0.0
0.0698438 0.0201562 0.0
0.0701563 0.0201562 0.0
0.0704687 0.0201562 0.0
0.0707813 0.0201562 0.0
0.0710938 0.0201562 0.0
0.0714063 0.0201562 0.0
0.0717187 0.0201562 0.0
0.0720313 0.0201562 0.0
0.0723437 0.0201562 0.0
0.0726563 0.0201562 0.0
0.0729687 0.0201562 0.0
0.0732813 0.0201562 0.0
0.0735938 0.0201562 0.0
0.0739063 0.0201562 0.0
0.0742188 0.0201562 0.0
0.0745313 0.0201562 0.0
0.0748438 0.0201562 0.0
0.0751563 0.0201562 0.0
0.0754688 0.0201562 0.0
0.0757812 0.0201562 0.0
0.0760938 0.0201562 0.0
0.0764063 0.0201562 0.0
0.0767187 0.0201562 0.0
0.0770313 0.0201562 0.0
0.0773438 0.0201562 0.0
0.0776562 0.0201562 0.0
0.0779688 0.0201562 0.0
0.0782813 0.0201562 0.0
0.0785938 0.0201562 0.0
0.0789063 0.0201562 0.0
0.0792188 0.0201562 0.0
0.0795312 0.0201562 0.0
0.0798438 0.0201562 0.0
0.0201562 0.0204687 0.0
0.0204687 0.0204687 0.0
0.0207812 0.0204687 0.0
0.0210937 0.0204687 0.0
0.0214062 0.0204687 0.0
0.0217187 0.0204687 0.0
0.0220312 0.0204687 0.0
0.0223437 0.0204687 0.0
0.0226562 0.0204687 0.0
0.0229687 0.0204687 0.0
0.0232812 0.0204687 0.0
0.0235937 0.0204687 0.0
0.0239062 0.0204687 0.0
0.0242187 0.0204687 0.0
0.0245312 0.0204687 0.0
0.0248437 0.0204687 0.0
0.0251562 0.0204687 0.0
0.0254687 0.0204687 0.0
0.0257812 0.0204687 0.0
0.0260937 0.0204687 0.0
0.0264062 0.0204687 0.0
0.0267187 0.0204687 0.0
0.0270312 0.0204687 0.0
0.0273438 0.0204687 0.0
0.0276562 0.0204687 0.0
0.0279687 0.0204687 0.0
0.0282813 0.0204687 0.0
0.0285937 0.0204687 0.0
0.0289062 0.0204687 0.0
0.0292187 0.0204687 0.0
0.0295312 0.0204687 0.0
0.0298437 0.0204687 0.0
0.0301563 0.0204687 0.0
0.0304687 0.0204687 0.0
0.0307812 0.0204687 0.0
0.0310937 0.0204687 0.0
0.0314062 0.0204687 0.0
0.0317188 0.0204687 0.0
0.0320312 0.0204687 0.0
0.0323437 0.0204687 0.0
0.0326562 0.0204687 0.0
0.0329688 0.0204687 0.0
0.0332812 0.0204687 0.0
0.0335937 0.0204687 0.0
0.0339062 0.0204687 0.0
0.0342187 0.0204687 0.0
0.0345312 0.0204687 0.0
0.0348437 0.0204687 0.0
0.0351562 0.0204687 0.0
0.0354688 0.0204687 0.0
0.0357813 0.0204687 0.0
0.0360938 0.0204687 0.0
0.0364063 0.0204687 0.0
0.0367188 0.0204687 0.0
0.0370313 0.0204687 0.0
0.0373438 0.0204687 0.0
0.0376563 0.0204687 0.0
0.0379687 0.0204687 0.0
0.0382812 0.0204687 0.0
0.0385938 0.0204687 0.0
0.0389062 0.0204687 0.0
0.0392187 0.0204687 0.0
0.0395313 0.0204687 0.0
0.0398437 0.0204687 0.0
0.0401563 0.0204687 0.0
0.0404687 0.0204687 0.0
0.0407812 0.0204687 0.0
0.0410937 0.0204687 0.0
0.0414062 0.0204687 0.0
0.0417187 0.0204687 0.0
0.0420312 0.0204687 0.0
0.0423437 0.0204687 0.0
0.0426562 0.0204687 0.0
0.0429688 0.0204687 0.0
0.0432813 0.0204687 0.0
0.0435938 0.0204687 0.0
0.0439063 0.0204687 0.0
0.0442188 0.0204687 0.0
0.0445313 0.0204687 0.0
0.0448438 0.0204687 0.0
0.0451562 0.0204687 0.0
0.0454688 0.0204687 0.0
0.0457813 0.0204687 0.0
0.0460938 0.0204687 0.0
0.0464062 0.0204687 0.0
0.0467188 0.0204687 0.0
0.0470312 0.0204687 0.0
0.0473438 0.0204687 0.0
0.0476563 0.0204687 0.0
0.0479687 0.0204687 0.0
0.0482813 0.0204687 0.0
0.0485938 0.0204687 0.0
0.0489062 0.0204687 0.0
0.0492188 0.0204687 0.0
0.0495313 0.0204687 0.0
0.0498437 0.0204687 0.0
0.0501562 0.0204687 0.0
0.0504688 0.0204687 0.0
0.0507812 0.0204687 0.0
0.0510938 0.0204687 0.0
0.0514063 0.0204687 0.0
0.0517187 0.0204687 0.0
0.0520313 0.0204687 0.0
0.0523438 0.0204687 0.0
0.0526563 0.0204687 0.0
0.0529687 0.0204687 0.0
0.0532813 0.0204687 0.0
0.0535938 0.0204687 0.0
0.0539063 0.0204687 0.0
0.0542187 0.0204687 0.0
0.0545313 0.0204687 0.0
0.0548438 0.0204687 0.0
0.0551563 0.0204687 0.0
0.0554688 0.0204687 0.0
0.0557812 0.0204687 0.0
0.0560937 0.0204687 0.0
0.0564062 0.0204687 0.0
0.0567188 0.0204687 0.0
0.0570313 0.0204687 0.0
0.0573438 0.0204687 0.0
0.0576562 0.0204687 0.0
0.0579687 0.0204687 0.0
0.0582813 0.0204687 0.0
0.0585938 0.0204687 0.0
0.0589063 0.0204687 0.0
0.0592188 0.0204687 0.0
0.0595313 0.0204687 0.0
0.0598438 0.0204687 0.0
0.0601563 0.0204687 0.0
0.0604688 0.0204687 0.0
0.0607813 0.0204687 0.0
0.0610938 0.0204687 0.0
0.0614062 0.0204687 0.0
0.0617188 0.0204687 0.0
0.0620313 0.0204687 0.0
0.0623438 0.0204687 0.0
0.0626562 0.0204687 0.0
0.0629688 0.0204687 0.0
0.0632813 0.0204687 0.0
0.0635938 0.0204687 0.0
0.0639062 0.0204687 0.0
0.0642187 0.0204687 0.0
0.0645313 0.0204687 0.0
0.0648438 0.0204687 0.0
0.0651562 0.0204687 0.0
0.0654688 0.0204687 0.0
0.0657812 0.0204687 0.0
0.0660937 0.0204687 0.0
0.0664062 0.0204687 0.0
0.0667188 0.0204687 0.0
0.0670313 0.0204687 0.0
0.0673438 0.0204687 0.0
0.0676563 0.0204687 0.0
0.0679688 0.0204687 0.0
0.0682813 0.0204687 0.0
0.0685938 0.0204687 0.0
0.0689063 0.0204687 0.0
0.0692187 0.0204687 0.0
0.0695313 0.0204687 0.0
0.0698438 0.0204687 0.0
0.0701563 0.0204687 0.0
0.0704687 0.0204687 0.0
0.0707813 0.0204687 0.0
0.0710938 0.0204687 0.0
0.0714063 0.0204687 0.0
0.0717187 0.0204687 0.0
0.0720313 0.0204687 0.0
0.0723437 0.0204687 0.0
0.0726563 0.0204687 0.0
0.0729687 0.0204687 0.0
0.0732813 0.0204687 0.0
0.0735938 0.0204687 0.0
0.0739063 0.0204687 0.0
0.0742188 0.0204687 0.0
0.0745313 0.0204687 0.0
0.0748438 0.0204687 0.0
0.0751563 0.0204687 0.0
0.0754688 0.0204687 0.0
0.0757812 0.0204687 0.0
0.0760938 0.0204687 0.0
0.0764063 0.0204687 0.0
0.0767187 0.0204687 0.0
0.0770313 0.0204687 0.0
0.0773438 0.0204687 0.0
0.0776562 0.0204687 0.0
0.0779688 0.0204687 0.0
0.0782813 0.0204687 0.0
0.0785938 0.0204687 0.0
0.0789063 0.0204687 0.0
0.0792188 0.0204687 0.0
0.0795312 0.0204687 0.0
0.0798438 0.0204687 0.0
0.0201562 0.0207812 0.0
0.0204687 0.0207812 0.0
0.0207812 0.0207812 0.0
0.0210937 0.0207812 0.0
0.0214062 0.0207812 0.0
0.0217187 0.0207812 0.0
0.0220312 0.0207812 0.0
0.0223437 0.0207812 0.0
0.0226562 0.0207812 0.0
0.0229687 0.0207812 0.0
0.0232812 0.0207812 0.0
0.0235937 0.0207812 0.0
0.0239062 0.0207812 0.0
0.0242187 0.0207812 0.0
0.0245312 0.0207812 0.0
0.0248437 0.0207812 0.0
0.0251562 0.0207812 0.0
0.0254687 0.0207812 0.0
0.0257812 0.0207812 0.0
0.0260937 0.0207812 0.0
0.0264062 0.0207812 0.0
0.0267187 0.0207812 0.0
0.0270312 0.0207812 0.0
0.0273438 0.0207812 0.0
0.0276562 0.0207812 0.0
0.0279687 0.0207812 0.0
0.0282813 0.0207812 0.0
0.0285937 0.0207812 0.0
[...]
POINT_DATA 36864
SCALARS Intensity float 1
LOOKUP_TABLE default
0.292441
0.384026
0.154666
0.355184
0.175209
0.354928
0.465341
0.484659
0.371027
0.360118
0.376037
0.548579
0.266729
0.0678862
0.342018
0.307703
0.379524
0.373138
0.519827
0.121553
0.292402
0.252354
0.263547
0.395374
0.242657
0.448989
0.342945
0.203257
0.312858
0.327138
0.378433
0.280133
0.176884
0.271088
0.358392
0.201669
0.576595
0.342059
0.235264
0.371778
0.383371
0.385483
0.439803
0.253621
0.418682
0.184841
0.211792
0.303812
0.203851
0.270756
0.284742
0.132112
0.226028
0.384602
0.430526
0.368675
0.343542
0.519171
0.319713
0.533267
0.245142
0.368684
0.504843
0.388882
0.264843
0.255601
0.11619
0.203019
0.168588
0.133508
0.301361
0.457961
0.609924
0.457474
0.450132
0.374647
0.270681
0.279493
0.226642
0.3581
0.407692
0.344202
0.426995
0.575736
0.237825
0.219104
0.306339
0.159388
0.398772
0.323799
0.188847
0.454777
0.367783
0.197856
0.346145
0.417119
0.359534
0.384986
0.314291
0.2287
0.417057
0.22014
0.212451
0.283193
0.435759
0.290974
0.44203
0.379109
0.531721
0.139307
0.361767
0.307822
0.227164
0.252148
0.159619
0.204216
0.24143
0.353524
0.334113
0.282284
0.282891
0.231127
0.221776
0.238395
0.429456
0.242941
0.40348
0.453091
0.333943
0.497754
0.386494
0.211777
0.303288
0.143881
0.291914
0.353262
0.347019
0.138777
0.355177
0.226299
0.303763
0.371568
0.157456
0.266096
0.0990136
0.250557
0.247445
0.433025
0.320173
0.210005
0.382344
0.264579
0.482936
0.425204
0.360177
0.251058
0.277084
0.180092
0.315407
0.343654
0.458597
0.270545
0.449073
0.146394
0.316156
0.197899
0.539756
0.285088
0.50219
0.389248
0.266971
0.274137
0.172784
0.509891
0.30704
0.48804
0.319999
0.182922
0.181949
0.239678
0.310589
0.529799
0.332537
0.375695
0.506065
0.264596
0.273926
0.211724
0.501039
0.611463
0.428726
0.208229
0.131934
0.0665519
0.368463
0.350606
0.248378
0.199935
0.277122
0.307838
0.203034
0.266645
0.374535
0.225403
0.418828
0.237844
0.318481
0.158796
0.481249
0.186475
0.242934
0.348679
0.245366
0.356836
0.47049
0.351644
0.428497
0.204833
0.376564
0.261775
0.270551
0.391193
0.182781
0.384541
0.342472
0.399936
0.0669882
0.394326
0.234031
0.221091
0.178204
0.233026
0.281309
0.209736
0.288477
0.41616
0.270429
0.00556682
0.436092
0.116607
0.19984
0.253789
0.377407
0.244261
0.390784
0.209452
0.195528
0.343681
0.241675
0.361109
0.413843
0.275255
0.378887
0.398957
0.125641
0.260712
0.430927
0.249502
0.451594
0.32278
0.466862
0.336332
0.150098
0.422441
0.0549225
0.412405
0.351488
0.37023
0.267175
0.306816
0.455787
0.328593
0.355912
0.475379
0.449767
0.24416
0.21886
0.165743
0.297751
0.174666
0.414847
0.079393
0.318549
0.365188
0.371476
0.220406
0.400828
0.306457
0.28328
0.250015
0.253377
0.337784
0.394343
0.232311
0.246994
0.571906
0.34418
0.435884
0.215588
0.355343
0.272632
0.167294
0.343152
0.320461
0.379853
0.286758
0.483871
0.439358
0.375712
0.24454
0.365682
0.442636
0.352717
0.108761
0.326478
0.386773
0.338636
0.23505
0.277526
0.338393
0.338438
0.249137
0.306697
0.386463
0.315069
0.224484
0.441571
0.429033
0.384151
0.280112
0.262498
0.279489
0.465761
0.437255
0.369657
0.420977
0.345533
0.269605
0.0805723
0.521762
0.176239
0.307314
0.328542
0.325271
0.429287
0.282923
0.201794
0.319921
0.235382
0.239801
0.427194
0.294734
0.277109
0.443545
0.512341
0.279153
0.285171
0.327651
0.180213
0.444197
0.527631
0.36444
0.262674
0.3276
0.540296
0.267498
0.313217
0.519375
0.124912
0.442515
0.296295
0.259168
0.359901
0.350851
0.365519
0.261423
0.460462
0.443591
0.363033
0.35957
0.499539
0.131406
0.252607
0.252201
0.373152
0.445081
0.0183326
0.27163
0.236217
0.167322
0.301982
0.407005
0.323439
0.355762
0.229666
0.179991
0.558787
0.395272
0.287893
0.371757
0.444558
0.333662
0.349762
0.381826
0.24121
0.336474
0.310031
0.269288
0.410038
-0.00843099
0.417893
0.194714
0.521729
0.24905
0.175408
0.270721
0.206184
0.227295
0.390711
0.249898
0.158003
0.240606
0.548664
0.147576
0.112103
0.361986
0.374055
0.35099
0.361986
0.369958
0.217841
0.183453
0.306347
0.184243
0.269406
0.316073
0.266743
0.227227
0.154377
0.270532
0.387893
0.462761
0.239584
0.33092
0.318232
0.280849
0.415651
0.312605
0.190962
0.214297
0.283247
0.15148
0.359072
0.42617
0.452626
0.330718
0.274039
0.363356
0.375731
0.368281
0.323752
0.129095
0.165739
0.372082
0.35281
0.440596
0.346713
0.423734
0.36513
0.281958
0.34802
0.36101
0.358588
0.129552
0.354993
0.275715
0.30631
0.363876
0.299193
0.178599
0.194722
0.187148
0.175414
0.253024
0.438914
0.238262
0.213998
0.362623
0.311737
0.324059
0.213105
0.41547
0.599558
0.397245
0.61581
0.183987
0.331815
0.336735
0.303789
0.26476
0.337094
0.40538
0.253975
0.344876
0.383207
0.33195
0.219963
0.369582
0.363089
0.335645
0.14524
0.241846
0.448688
0.154255
0.283899
0.36379
0.237365
0.289495
0.0123118
0.294453
0.391943
0.288459
0.367501
0.235624
0.192215
0.382782
0.154502
0.270358
0.25491
0.263605
0.292453
0.254597
0.161624
0.374522
0.371027
0.332382
0.49269
0.404238
0.290331
0.257539
0.121958
0.35463
0.250785
0.125424
0.376503
0.300561
0.395711
0.25116
0.318259
0.336633
0.419645
0.268202
0.412513
0.380787
0.399415
0.380409
0.32412
0.232099
0.376282
0.0593331
0.36033
0.224785
0.295308
0.385769
0.315981
0.260893
0.295973
0.39015
0.462521
0.141548
0.280913
0.202547
0.331457
0.25744
0.297923
0.358385
0.423073
0.352021
0.332975
0.138654
0.316249
0.366865
0.260679
0.336995
0.389184
0.164191
0.418799
0.194847
0.0850172
0.198823
0.285533
0.432946
0.190326
0.19957
0.324715
0.438839
0.231927
0.396401
0.352195
0.355414
0.383094
0.367432
0.422309
0.333632
0.361135
0.250552
0.387487
0.390662
0.44423
0.417458
0.36074
0.318681
0.331964
0.137521
0.448795
0.29457
0.269983
0.614662
0.308937
0.266806
0.304636
0.103132
0.310253
0.253032
0.185059
0.266985
0.257067
0.332684
0.272215
0.489568
0.390869
0.210485
0.45594
0.297297
0.279189
0.322073
0.442931
0.39436
0.0918654
0.147601
0.531069
0.191028
0.207479
0.293315
0.351301
0.37616
0.25172
0.462803
0.280497
0.376136
0.181523
0.183241
0.44435
0.454954
0.376169
0.41013
0.491145
0.318866
0.21962
0.323399
0.408446
0.324763
0.549361
0.31222
0.29224
0.326135
0.188436
0.514469
0.266629
0.333749
0.232605
0.264269
0.367436
0.309002
0.170498
0.185718
0.315578
0.35839
0.263044
0.315366
0.531871
0.426318
0.148837
0.241348
0.3843
0.296135
0.345175
0.0999013
0.282847
0.178036
0.379443
0.114949
0.21878
0.192653
0.324944
0.208863
0.405716
0.464541
0.310629
0.37774
0.312251
0.377174
0.254975
0.3396
0.278507
0.33119
0.170195
0.329091
0.241749
0.407445
0.386506
0.352956
0.153085
0.45612
0.238202
0.207554
0.450225
0.377144
0.244697
0.271179
0.280649
0.304832
0.443291
0.241548
0.295573
0.32408
0.247176
0.286857
0.286378
0.201547
0.341231
0.341515
0.228892
0.432761
0.205932
0.258083
0.343348
0.36111
0.415971
0.261707
0.106595
0.535067
0.31043
0.393063
0.431411
0.202058
0.314908
0.232651
0.448887
0.370118
0.225393
0.425962
0.200695
0.237165
0.434992
0.301711
0.349567
0.298537
0.21617
0.301606
0.256841
0.350512
0.332575
0.322312
0.230586
0.455302
0.377923
0.494383
0.0520128
0.45452
0.285129
0.27466
0.360974
0.323561
0.300556
0.359951
0.433288
0.27833
0.276625
0.215525
0.227003
0.327494
0.407643
0.2564
0.349677
0.260744
0.397566
0.313243
0.395358
0.333549
0.346716
0.253871
0.256499
0.330546
0.171324
0.55579
0.304855
0.213112
0.190503
0.409067
0.372325
0.472852
0.403034
0.566424
0.225138
0.283274
0.477543
0.19591
0.209059
0.33056
0.375449
0.424705
0.370517
0.451808
0.274452
0.32263
0.520689
0.327865
0.36563
0.432025
0.251499
0.421048
0.25418
0.252732
0.38847
0.344241
0.355546
0.308534
0.31817
0.367279
0.275839
0.380772
0.34773
0.30184
0.366688
0.315333
0.288602
0.349453
0.393777
0.3232
0.317571
0.417237
0.297934
0.169954
0.297792
0.163932
0.330747
0.5509
0.0448993
0.364186
0.18164
0.226244
0.390888
0.292132
0.209061
0.367126
0.31612
0.303712
0.383377
0.20622
0.336025
0.323099
0.219664
0.39635
0.318921
0.470484
0.359233
0.311004
0.40981
0.301462
0.31008
0.334472
0.16558
0.306982
0.141925
0.384684
0.346442
0.1246
0.319037
0.277188
0.238298
0.412496
0.308467
0.250707
0.212927
0.171728
0.301176
0.231649
0.459944
0.477143
0.265361
0.272964
0.161271
0.390312
0.229567
0.3121
0.160703
0.383938
0.209164
0.349641
0.344857
0.254158
0.466574
0.463945
0.398451
0.338487
0.169515
0.0937023
0.322169
0.231764
0.467906
0.379725
0.601639
0.342924
0.212857
0.0962449
0.318035
0.386458
0.350814
0.55997
0.435111
0.460732
0.322895
0.235411
0.448515
0.19126
0.368338
0.451815
0.215272
0.189562
0.413073
0.23616
0.0882944
0.355873
0.347637
0.127155
0.347901
0.318685
0.405299
0.273817
0.29324
0.302515
0.499345
0.188352
0.359369
0.313787
0.217952
0.240262
0.2543
0.333543
0.369169
0.178775
0.326858
0.342646
0.359711
0.268501
0.213499
0.304121
0.32439
0.281329
0.311414
0.250522
0.299028
0.324639
0.274939
0.440205
0.439362
0.333907
0.327652
0.26536
0.336133
0.199218
0.301571
0.356541
0.192764
0.515018
0.364277
0.295301
0.264815
0.312585
0.56836
0.253073
0.369578
0.357981
0.433705
0.162897
0.323736
0.428408
0.354774
0.353844
0.363891
0.320547
0.357937
0.201363
0.358393
0.256679
0.287969
0.22953
0.367408
0.473225
0.236693
0.424718
0.324755
0.339262
0.327721
0.361686
0.360845
0.276378
0.363575
0.0546924
0.120368
0.218612
0.288542
0.407605
0.0899902
0.300154
0.421356
0.366799
0.253585
0.0588219
0.234734
0.240828
0.285532
0.274213
0.464169
0.363714
0.332017
0.389812
0.386634
0.36673
0.294715
0.231077
0.37614
0.388683
0.32127
0.345285
0.446062
0.234353
0.237553
0.302447
0.187944
0.225196
0.476317
0.394585
0.29151
0.365929
0.382927
0.315955
0.142077
0.330511
0.268324
0.26382
0.451108
0.110862
0.453289
0.343744
0.267652
0.167834
0.326571
0.190129
0.365928
0.271171
0.18663
0.338817
0.222592
0.463912
0.204609
0.519923
0.219287
0.356053
0.338954
0.329234
0.35702
0.332859
0.426251
0.354224
0.306848
0.196421
0.273415
0.23175
0.191074
0.422408
0.361181
0.14692
0.320763
0.231444
0.236939
0.270703
0.322039
0.383811
0.123313
0.278646
0.36227
0.418658
0.356551
0.424312
0.304452
0.203686
0.345847
0.172386
0.190703
0.304329
0.242683
0.229986
0.333068
0.24846
0.0452815
0.290346
0.147428
0.332545
0.172043
0.400264
0.200821
0.101403
0.341795
0.23478
0.238924
0.239285
0.310419
0.309936
0.407247
0.292924
0.32087
0.141494
0.461276
0.344707
0.0117409
0.307028
0.424708
0.225918
0.207287
0.333272
0.523624
0.420194
0.246417
0.218021
0.385303
0.445826
0.22742
0.139683
0.434317
0.385491
0.175157
0.364855
0.380694
0.316417
0.129566
0.386199
0.358809
0.345691
0.304233
0.295697
0.409471
0.360073
0.228247
0.425165
0.41883
0.325005
0.404066
0.466744
0.249263
0.223306
0.335059
0.315011
0.337164
0.334464
0.261795
0.410742
0.407277
0.353775
0.260624
0.299557
0.382972
0.358869
0.289753
0.504753
0.370135
0.0508985
0.0425368
0.54851
0.440338
0.212827
0.527041
0.223858
0.337768
0.203267
0.380768
0.381459
0.270953
0.376656
0.329252
0.428307
0.37197
0.305386
0.309324
0.327179
0.188988
0.415749
0.303446
0.335563
0.274759
0.259633
0.350997
0.228982
0.384254
0.272818
0.234053
0.406935
0.377759
0.205808
0.302733
0.481459
0.212283
0.195317
0.375053
0.33381
0.150106
0.393057
0.212296
0.212169
0.396765
0.358351
0.202099
0.210342
0.353782
0.336355
0.254373
0.260385
0.175135
0.275361
0.211743
0.402307
0.313456
0.451172
0.387166
0.198488
0.303052
0.295082
0.364058
0.384521
0.330737
0.268676
0.114554
0.414956
0.351641
0.158021
0.365663
0.368388
0.343295
0.335417
0.283873
0.462634
0.42918
0.177353
0.286142
0.273527
0.268713
0.466346
0.399015
0.443184
0.107167
0.00925534
0.358336
0.361725
0.132997
0.178844
0.496874
0.225986
0.284009
0.324003
0.293118
0.222947
0.192713
0.205074
0.359303
0.314163
0.208293
0.476049
0.353433
0.320848
0.453905
0.287703
0.392965
0.403275
0.421932
0.486226
0.424546
0.202466
0.480706
0.310076
0.409205
0.175285
0.366612
0.217355
0.0824721
0.155719
0.213984
0.442777
0.345911
0.31505
0.309783
0.227158
0.372083
0.22242
0.388559
0.322846
0.258009
0.283235
0.302182
0.451681
0.217028
0.246462
0.25431
0.210671
0.457145
0.405772
0.246698
0.321685
0.380678
0.220919
0.337379
0.321581
0.266262
0.350091
0.264974
0.246013
0.365966
0.434277
0.270579
0.244901
0.220434
0.263486
0.352289
0.445915
0.138392
0.263068
0.35816
0.303532
0.329985
0.392602
0.421299
0.428547
0.238462
0.284968
0.345071
0.211331
0.321695
0.344357
0.295056
0.352507
0.431833
0.19012
0.306781
0.213591
0.203271
0.447475
0.452959
0.42929
0.384017
0.432678
0.385475
0.423427
0.301862
0.286652
0.204447
0.527826
0.33948
0.22977
0.365764
0.329846
0.265537
0.350977
0.316751
0.398989
0.34533
0.374141
0.186121
0.267492
0.460181
0.484166
0.509686
0.318691
0.274781
0.33513
0.343309
0.0279543
0.286043
0.490445
0.301591
0.211311
0.352308
0.268215
0.29363
0.379446
0.271988
0.407119
0.212206
0.267552
0.115449
0.52314
0.23348
0.255106
0.123576
0.365074
0.401725
0.14359
0.228998
0.179792
0.394765
0.218704
0.58188
0.309437
0.387037
0.339209
0.282686
0.251395
0.437606
0.0878243
0.256564
0.1498
0.306299
0.461033
0.274155
0.345239
0.31545
0.411252
0.193654
0.276571
0.282231
0.137863
0.328214
0.344984
0.332047
0.253773
0.543599
0.374251
0.303022
0.205833
0.262565
0.383979
0.262588
0.282983
0.333165
0.184603
0.254096
0.115115
0.325327
0.224921
0.232437
0.14325
0.39833
0.405618
0.194003
0.313752
0.572195
0.231789
0.328253
0.258719
0.438025
0.164202
0.24037
0.479039
0.327895
0.313737
0.344021
0.449358
0.236853
0.257962
0.426697
0.25739
0.254846
0.230111
0.450873
0.23788
0.207781
0.38648
0.32528
0.346191
0.222079
0.404338
0.278072
0.370323
0.313993
0.291327
0.377401
0.352428
0.239415
0.225599
0.256996
0.337917
0.335071
0.371236
0.325453
0.276015
0.24742
0.446324
0.528104
0.32706
0.468471
0.301613
0.362218
0.329523
0.0778333
0.575995
0.191888
0.325233
0.398617
0.357058
0.296156
0.216101
0.424302
0.274207
0.125178
0.244027
0.316844
0.381693
0.210371
0.258955
0.269064
0.465435
0.270908
0.425216
0.277243
0.300092
0.429331
0.179925
0.30225
0.485068
0.434798
0.312958
0.232254
0.227742
0.325526
0.346701
0.4112
0.209159
0.171174
0.279236
0.175292
0.332978
0.315598
0.129298
0.175697
0.345047
0.439617
0.41464
0.297532
0.498103
0.449892
0.396952
0.220855
0.263981
0.325595
0.281791
0.421836
0.418112
0.187918
0.342012
0.2716
0.494467
0.328339
0.178397
0.291539
0.440278
0.374463
0.152965
0.281049
0.363905
0.256268
0.276964
0.246862
0.223651
0.381415
0.386013
0.251649
0.0723084
0.450007
0.178735
0.249595
0.248141
0.367948
0.246217
0.396495
0.389102
0.350329
0.53965
0.355424
0.215219
0.370475
0.406385
0.164677
0.284239
0.342884
0.26171
0.18522
0.277874
0.339439
0.326961
0.323342
0.223756
0.356517
0.299475
0.337743
0.391529
0.354892
0.389614
0.205261
0.371358
0.288534
0.244765
0.439462
0.222011
0.332674
0.365187
0.403119
0.247611
0.254714
0.187355
0.386512
0.368481
0.460916
0.257158
0.408123
0.224047
0.402015
0.279374
0.394982
0.225219
0.141402
0.322992
0.379943
0.173079
0.363194
0.142493
0.398275
0.492828
0.335212
0.384836
0.191213
0.225426
0.419183
0.195961
0.451761
0.263915
0.243759
0.469176
0.146559
0.248784
0.192779
0.0939008
0.133603
0.366499
0.333221
0.403961
0.237757
0.423582
0.277263
0.392506
0.217567
0.316294
0.312842
0.234679
0.318145
0.372589
0.340154
0.128156
0.344321
0.210783
0.248855
0.461455
0.245881
0.290789
0.463646
0.297719
0.264246
0.183327
0.220653
0.109179
0.374482
0.297907
0.283173
0.311923
0.291411
0.297463
0.250762
0.235275
0.536993
0.345504
0.370487
0.19747
0.341952
0.210094
0.340594
0.303314
0.396813
0.425059
0.382035
0.233118
0.416912
0.237039
0.177805
0.479711
0.427907
0.322972
0.277456
0.370082
0.21557
0.529724
0.310565
0.309329
0.427195
0.280989
0.45596
0.323804
0.132934
0.291878
0.246787
0.317434
0.331259
0.317198
0.27992
0.346076
0.468
0.355172
0.331598
0.363577
0.259253
0.17348
0.387106
0.364761
0.319322
0.321139
0.301544
0.389952
0.299991
0.235507
0.267009
0.219039
0.258908
0.37861
0.215186
0.151189
0.310227
0.283469
0.30816
0.441265
0.149715
0.309683
0.321498
0.36424
0.0493506
0.327407
0.350752
0.216389
0.445031
0.157302
0.335163
0.130189
0.41982
0.211723
0.333703
0.380567
0.341766
0.222807
0.35188
0.457766
0.337949
0.275194
0.334385
0.271181
0.322559
0.208295
0.276392
0.167381
0.319083
0.174321
0.437929
0.350742
0.365229
0.286162
0.505118
0.429392
0.14386
0.382562
0.353888
0.321908
0.222375
0.314235
0.268207
0.367521
0.338561
0.453932
0.436222
0.375375
0.0893389
0.277781
0.273546
0.35119
0.474872
0.250801
0.328973
0.211103
0.272273
0.39824
0.47343
0.445613
0.275631
0.244647
0.372083
0.491767
0.333689
0.123507
0.415704
0.289402
0.366856
0.143142
0.344437
0.337648
0.305591
0.239178
0.286412
0.305298
0.224596
0.341583
0.317553
0.279963
0.438878
0.230597
0.3184
0.223668
0.430708
0.372993
0.313991
0.198171
0.236809
0.238478
0.490262
0.322001
0.524386
0.396056
0.332247
0.389339
0.30233
0.174954
0.294057
0.426316
0.260593
0.234952
0.220956
0.400205
0.161247
0.396118
0.295851
0.19642
0.251016
0.370802
0.265392
0.21425
0.507415
0.362975
0.235415
0.333672
0.354246
0.268775
0.308626
0.259667
0.50056
0.264999
0.33225
0.270919
0.16119
0.276352
0.264244
0.360024
0.303319
0.319166
0.173751
0.381779
0.376253
0.272458
0.390786
0.280161
0.504006
0.476215
0.301447
0.319003
0.264451
0.321651
0.229419
0.269017
0.275
0.285813
0.269224
0.385679
0.385374
0.453674
0.319816
0.392787
0.401126
0.333049
0.423346
0.380792
0.293169
0.315792
0.318323
0.301874
0.114776
0.394086
0.343679
0.387879
0.477225
0.338251
0.484886
0.256671
0.391782
0.321311
0.244674
0.27543
0.350171
0.283313
0.456571
0.27248
0.363667
0.378447
0.49832
0.219602
0.359107
0.312829
0.39723
0.278961
0.340435
0.404258
0.293884
0.352625
0.417843
0.515252
0.355633
0.2897
0.372207
0.169638
0.224372
0.341331
0.36523
0.301464
0.331929
0.242337
0.256743
0.278245
0.417174
0.293105
0.332789
0.299719
0.135109
0.363094
0.391005
0.25647
0.216732
0.146119
0.177048
0.323991
0.299499
0.353423
0.351673
0.38059
0.33887
0.255896
0.254198
0.322252
0.354358
0.384176
0.20393
0.248299
0.1252
0.321932
0.37052
0.524621
0.348235
0.226115
0.293915
0.441274
0.246541
0.328123
0.445826
0.187513
0.472198
0.280873
0.460079
0.36655
0.245138
0.249932
0.621334
0.189953
0.282559
0.249319
0.333551
0.365897
0.394563
0.458617
0.255341
0.446001
0.116745
0.420153
0.339183
0.241851
0.41168
0.407338
0.141165
0.519145
0.370843
0.402939
0.240728
0.288325
0.553394
0.337565
0.176662
0.129941
0.24324
0.35743
0.183177
0.269768
0.39512
0.342438
0.258998
0.383791
0.146816
0.35363
0.329753
0.149798
0.204268
0.143244
0.448696
0.341838
0.357131
0.391346
0.377181
0.221097
0.295983
0.360639
0.428326
0.397451
0.391962
0.33047
0.340821
0.260051
0.298584
0.275139
0.35256
0.433158
0.287968
0.0976888
0.308532
0.31142
0.358036
0.112512
0.103043
0.341639
0.448418
0.199114
0.423479
0.491136
0.129012
0.210988
0.466341
0.309411
0.301894
0.149006
0.141153
0.348064
0.299272
0.432977
0.36267
0.282547
0.192913
0.394091
0.399795
0.39776
0.304085
0.148255
0.185502
0.255526
0.248012
0.238115
0.218915
0.262439
0.218682
0.25585
0.471504
0.388582
0.221277
0.122764
0.25592
0.376152
0.175486
0.226008
0.205877
0.363614
0.269049
0.334527
0.345382
0.248667
0.170598
0.322655
0.298766
0.398388
0.322021
0.355338
0.206617
0.376598
0.458127
0.501236
0.300128
0.360758
0.337711
0.204712
0.326682
0.348736
0.487738
0.395926
0.36917
0.290828
0.353707
0.335314
0.203932
0.341598
0.345452
0.32289
0.267797
0.327546
0.28787
0.337138
0.371757
0.163591
0.401577
0.155545
0.387718
0.330376
0.402816
0.476765
0.38463
0.351632
0.270959
0.337194
0.292528
0.274658
0.55945
0.270857
0.393196
0.27373
0.192591
0.260301
0.301422
0.336295
0.330004
0.222872
0.265688
0.280372
0.334371
0.195397
0.253993
0.381844
0.43263
0.130484
0.227747
0.244093
0.311132
0.29095
0.573169
0.443348
0.389219
0.260689
0.168747
0.450417
0.263189
0.252925
0.191379
0.314447
0.348148
0.216116
0.237038
0.27682
0.0270812
0.237731
0.339701
0.305841
0.220187
0.390414
0.229527
0.201488
0.181442
0.301569
0.162865
0.217765
0.321506
0.343039
0.214643
0.477558
0.536619
0.244511
0.376489
0.392644
0.47889
0.277081
0.246993
0.250798
0.13383
0.239094
0.326484
0.42109
0.470128
0.338115
0.422671
0.196784
0.475267
0.359453
0.348983
0.452584
0.368431
0.353644
0.286696
0.250892
0.424783
0.213378
0.323035
0.259275
0.293761
0.324034
0.339827
0.341527
0.324431
0.362548
0.314139
0.352115
0.277286
0.234171
0.271051
0.362824
0.204488