# vtk DataFile Version 2.0
Vtkoutput example
ASCII

DATASET UNSTRUCTURED_GRID
POINTS 3393 float
0.1 0.1 0.0
0.098 0.1 0.0
0.1 0.098 0.0
0.1 0.096 0.0
0.096 0.1 0.0
0.097 0.098 0.0
0.0986667 0.0973333 0.0
0.0985 0.0955 0.0
0.1 0.094 0.0
0.0955 0.0985 0.0
0.094 0.1 0.0
0.0946667 0.0973333 0.0
0.096 0.096 0.0
0.0973333 0.0946667 0.0
0.0986667 0.0933333 0.0
0.1 0.092 0.0
0.0933333 0.0986667 0.0
0.092 0.1 0.0
0.0928571 0.0971429 0.0
0.1 0.09 0.0
0.0942857 0.0957143 0.0
0.0957143 0.0942857 0.0
0.097 0.0925 0.0
0.0985 0.09125 0.0
0.0914286 0.0985714 0.0
0.09 0.1 0.0
0.0925 0.0955 0.0
0.091 0.097 0.0
0.1 0.088 0.0
0.0985 0.0895 0.0
0.094 0.094 0.0
0.0955 0.0925 0.0
0.097 0.091 0.0
0.1 0.086 0.0
0.1 0.084 0.0
0.0895 0.0985 0.0
0.088 0.1 0.0
0.0885455 0.0970909 0.0
0.0923636 0.0927273 0.0
0.0910909 0.0941818 0.0
0.0898182 0.0956364 0.0
0.0986 0.0874 0.0
0.0961818 0.0883636 0.0
0.0936364 0.0912727 0.0
0.0949091 0.0898182 0.0
0.1 0.082 0.0
0.0984615 0.0833846 0.0
0.0973333 0.085 0.0
0.0872727 0.0985455 0.0
0.086 0.1 0.0
0.0869091 0.0970909 0.0
0.088 0.0955 0.0
0.092 0.091 0.0
0.0906667 0.0925 0.0
0.0889231 0.0930769 0.0
0.096 0.0865 0.0
0.0946667 0.088 0.0
0.0933333 0.0895 0.0
0.1 0.08 0.0
0.0985714 0.0814286 0.0
0.0971429 0.0828571 0.0
0.0957143 0.0842857 0.0
0.0854545 0.0985455 0.0
0.084 0.1 0.0
0.0861538 0.0958462 0.0
0.0847692 0.0972308 0.0
0.0857143 0.0942857 0.0
0.0871429 0.0928571 0.0
0.0913333 0.0896333 0.0
0.09 0.0911167 0.0
0.0885714 0.0914286 0.0
0.0942857 0.0857143 0.0
0.0928571 0.0871429 0.0
0.0906667 0.0882667 0.0
0.1 0.078 0.0
0.098625 0.079375 0.0
0.09725 0.08075 0.0
0.095875 0.082125 0.0
0.0945 0.0835 0.0
0.0833846 0.0986154 0.0
0.082 0.1 0.0
0.084875 0.093125 0.0
0.0842857 0.0957143 0.0
0.0830769 0.0972308 0.0
0.0835 0.0945 0.0
0.08625 0.09175 0.0
0.087625 0.090375 0.0
0.0893333 0.0897333 0.0
0.093125 0.084875 0.0
0.09175 0.08625 0.0
0.0891357 0.0873574 0.0
0.1 0.076 0.0
0.098197 0.0772717 0.0
0.0926984 0.0827722 0.0
0.0963637 0.079105 0.0
0.0951033 0.0803654 0.0
0.094072 0.0813967 0.0
0.1 0.074 0.0
0.0815385 0.0986154 0.0
0.08 0.1 0.0
0.0828174 0.0926533 0.0
0.0843062 0.0915861 0.0
0.082125 0.095875 0.0
0.08075 0.09725 0.0
0.0816127 0.094489 0.0
0.0856439 0.0901754 0.0
0.0876149 0.0884116 0.0
0.0911389 0.0843237 0.0
0.0893719 0.085386 0.0
0.0876048 0.0864482 0.0
0.1 0.072 0.0
0.0905279 0.0823975 0.0
0.098107 0.0753422 0.0
0.0963941 0.0765433 0.0
0.0922717 0.0806694 0.0
0.0950191 0.0779183 0.0
0.0936441 0.0792933 0.0
0.0981655 0.0733813 0.0
0.1 0.07 0.0
0.0810321 0.0929181 0.0
0.079375 0.098625 0.0
0.078 0.1 0.0
0.0822495 0.0912147 0.0
0.0836628 0.0899757 0.0
0.0800669 0.0954019 0.0
0.0784642 0.0961609 0.0
0.0793838 0.0935539 0.0
0.1 0.068 0.0
0.0849768 0.0887999 0.0
0.0862908 0.0876241 0.0
0.0890613 0.0834412 0.0
0.0875948 0.0844848 0.0
0.085696 0.0853319 0.0
0.0887508 0.0814963 0.0
0.0981243 0.071385 0.0
0.0899168 0.0804712 0.0
0.096214 0.0746843 0.0
0.0945911 0.075815 0.0
0.0918451 0.0785666 0.0
0.0932161 0.07719 0.0
0.096331 0.0727626 0.0
0.098173 0.0694169 0.0
0.0804185 0.0912582 0.0
0.0773169 0.0981519 0.0
0.0834389 0.0881583 0.0
0.076 0.1 0.0
0.0816817 0.0897761 0.0
0.0784747 0.0910943 0.0
0.0778381 0.0944669 0.0
0.0766338 0.0963039 0.0
0.0773258 0.0930808 0.0
0.1 0.066 0.0
0.0980717 0.0675033 0.0
0.0837973 0.0861789 0.0
0.0875847 0.0825215 0.0
0.0860677 0.0835918 0.0
0.0838144 0.0844188 0.0
0.0875748 0.0805903 0.0
0.0962487 0.07077 0.0
0.0893156 0.0785758 0.0
0.0943211 0.0740265 0.0
0.0927882 0.0750866 0.0
0.0905348 0.0773536 0.0
0.0916935 0.0761887 0.0
0.0944965 0.0721439 0.0
0.0962487 0.068995 0.0
0.0797275 0.0895791 0.0
0.0753256 0.0981221 0.0
0.081901 0.0875168 0.0
0.074 0.1 0.0
0.0799998 0.087873 0.0
0.0777958 0.0893845 0.0
0.0765309 0.0909304 0.0
0.0759508 0.0944558 0.0
0.0746513 0.0962441 0.0
0.0752677 0.0926078 0.0
0.1 0.064 0.0
0.0980715 0.065622 0.0
0.0961433 0.0670066 0.0
0.1 0.062 0.0
0.0822017 0.0848711 0.0
0.0857167 0.08171 0.0
0.0838316 0.0826587 0.0
0.0821855 0.0833942 0.0
0.087565 0.0786839 0.0
0.0859592 0.0798967 0.0
0.094373 0.070155 0.0
0.0875552 0.0767775 0.0
0.089045 0.0770656 0.0
0.0924281 0.0733687 0.0
0.0909919 0.0743609 0.0
0.0898992 0.0755082 0.0
0.0926621 0.0715252 0.0
0.094373 0.0684925 0.0
0.0733636 0.0981791 0.0
0.0807514 0.0853753 0.0
0.072 0.1 0.0
0.0793012 0.0858794 0.0
0.0781556 0.0872678 0.0
0.0768124 0.0880001 0.0
0.0758641 0.0891898 0.0
0.0745871 0.0907665 0.0
0.0737701 0.0945377 0.0
0.0727271 0.0963582 0.0
0.0733026 0.0924882 0.0
0.0981159 0.0636517 0.0
0.0961431 0.065244 0.0
0.094215 0.0665098 0.0
0.1 0.06 0.0
0.1 0.058 0.0
0.0980438 0.0616591 0.0
0.0806061 0.0835633 0.0
0.0838488 0.0808986 0.0
0.0821692 0.0819174 0.0
0.0843436 0.079203 0.0
0.0855479 0.0782935 0.0
0.0924974 0.06954 0.0
0.0862047 0.076224 0.0
0.0875454 0.0748711 0.0
0.0905604 0.0727196 0.0
0.0892637 0.0736628 0.0
0.0908521 0.0709147 0.0
0.0924974 0.0679901 0.0
0.0713652 0.0981371 0.0
0.0786026 0.0838859 0.0
0.07 0.1 0.0
0.077918 0.0854256 0.0
0.0763113 0.0866627 0.0
0.075045 0.087612 0.0
0.0722935 0.0909205 0.0
0.0739324 0.0889951 0.0
0.0720907 0.0945373 0.0
0.0708852 0.0961668 0.0
0.0714542 0.0927165 0.0
0.1 0.056 0.0
0.0962318 0.0633034 0.0
0.0942146 0.0648661 0.0
0.0922867 0.0660131 0.0
0.0980743 0.059684 0.0
0.0980962 0.0577067 0.0
0.0960877 0.0613181 0.0
0.0790106 0.0822554 0.0
0.0805068 0.0811761 0.0
0.082003 0.0800968 0.0
0.0835309 0.077903 0.0
0.0845277 0.0764485 0.0
0.0845083 0.0750168 0.0
0.090665 0.0689392 0.0
0.0860061 0.0742453 0.0
0.0890937 0.0703217 0.0
0.0875356 0.0729647 0.0
0.088746 0.0720891 0.0
0.090665 0.0674992 0.0
0.0694777 0.0981371 0.0
0.077443 0.0817411 0.0
0.0767584 0.0832807 0.0
0.068 0.1 0.0
0.0756128 0.0846691 0.0
0.0744671 0.0860575 0.0
0.0708263 0.0909199 0.0
0.0732776 0.0872238 0.0
0.0715811 0.0891753 0.0
0.0703279 0.0942502 0.0
0.0689554 0.0962741 0.0
0.0694608 0.0925482 0.0
0.1 0.054 0.0
0.0980962 0.0558325 0.0
0.0943477 0.0629551 0.0
0.0924636 0.0641318 0.0
0.0904216 0.0655327 0.0
0.0961923 0.0556649 0.0
0.0961923 0.0574134 0.0
0.0961486 0.059368 0.0
0.0941315 0.0609772 0.0
0.0786808 0.0803829 0.0
0.0801958 0.0789264 0.0
0.0815138 0.0775125 0.0
0.0828507 0.076673 0.0
0.0831705 0.0749037 0.0
0.084489 0.0735851 0.0
0.0885385 0.0688022 0.0
0.0873354 0.0697287 0.0
0.0858075 0.0722666 0.0
0.0869316 0.0714586 0.0
0.0888672 0.0670175 0.0
0.0674813 0.0980833 0.0
0.0772055 0.0798988 0.0
0.0760598 0.0812872 0.0
0.0749142 0.0826756 0.0
0.066 0.1 0.0
0.0739413 0.0841338 0.0
0.0726229 0.0854524 0.0
0.0702163 0.0891746 0.0
0.0688407 0.0907283 0.0
0.0708686 0.0874301 0.0
0.0684332 0.0944112 0.0
0.0669627 0.0961666 0.0
0.0679109 0.0925482 0.0
0.1 0.052 0.0
0.098096 0.0539582 0.0
0.0961921 0.0539164 0.0
0.0924636 0.0626069 0.0
0.0906412 0.0636801 0.0
0.0885733 0.0650566 0.0
0.0942885 0.0554974 0.0
0.0942885 0.0571202 0.0
0.0942228 0.0590519 0.0
0.0921773 0.0606366 0.0
0.0783511 0.0785104 0.0
0.0794968 0.077122 0.0
0.0806424 0.0757336 0.0
0.081788 0.0743452 0.0
0.0829337 0.0729568 0.0
0.0840793 0.0715684 0.0
0.0866876 0.0682858 0.0
0.085577 0.0702953 0.0
0.0870694 0.0665359 0.0
0.0769018 0.0781402 0.0
0.0656001 0.0980834 0.0
0.0756392 0.0795243 0.0
0.0743765 0.0809085 0.0
0.0731138 0.0822926 0.0
0.064 0.1 0.0
0.0714303 0.0842078 0.0
0.0701562 0.0856849 0.0
0.0686917 0.0886242 0.0
0.0674007 0.0907283 0.0
0.0681575 0.0867871 0.0
0.066444 0.0942499 0.0
0.0652002 0.0961669 0.0
0.0659253 0.0923332 0.0
0.1 0.05 0.0
0.0979958 0.0518664 0.0
0.0959824 0.0519564 0.0
0.0942881 0.0538746 0.0
0.0979958 0.05 0.0
0.0906412 0.06227 0.0
0.086725 0.0645805 0.0
0.0887043 0.0634964 0.0
0.0923866 0.05533 0.0
0.0922985 0.0572391 0.0
0.0921768 0.0591394 0.0
0.0903023 0.0603098 0.0
0.0768323 0.07639 0.0
0.078212 0.0750101 0.0
0.0795918 0.0736302 0.0
0.0809715 0.0722502 0.0
0.0838187 0.0695998 0.0
0.0823512 0.0708703 0.0
0.083461 0.0683418 0.0
0.0848367 0.0677694 0.0
0.0852716 0.0660543 0.0
0.0754526 0.0777699 0.0
0.0744351 0.0764462 0.0
0.0636289 0.0981258 0.0
0.0740729 0.0791498 0.0
0.0726931 0.0805298 0.0
0.0713134 0.0819097 0.0
0.062 0.1 0.0
0.0694438 0.0839397 0.0
0.0676232 0.0849501 0.0
0.0654237 0.0904794 0.0
0.0666664 0.0869725 0.0
0.0669 0.0889427 0.0
0.0648004 0.0942503 0.0
0.0632578 0.0962516 0.0
0.0640404 0.0925026 0.0
0.0746095 0.0749312 0.0
0.1 0.048 0.0
0.0979959 0.0481336 0.0
0.0923861 0.0538329 0.0
0.0959915 0.05 0.0
0.0939873 0.05 0.0
0.0939736 0.0519346 0.0
0.0959918 0.0482672 0.0
0.0905612 0.0537928 0.0
0.0888353 0.0619362 0.0
0.0853139 0.0647213 0.0
0.0870294 0.0627847 0.0
0.0905618 0.0551694 0.0
0.0904526 0.0570567 0.0
0.0903017 0.0589331 0.0
0.0884273 0.059983 0.0
0.0761309 0.0737488 0.0
0.0776524 0.0725663 0.0
0.0791738 0.0713838 0.0
0.0806952 0.0702013 0.0
0.0820853 0.0689142 0.0
0.0823252 0.0675468 0.0
0.0839028 0.0648622 0.0
0.0834738 0.0665813 0.0
0.073183 0.0776952 0.0
0.0726157 0.0759229 0.0
0.0635665 0.0906897 0.0
0.0616341 0.0980522 0.0
0.0749165 0.0726375 0.0
0.0735414 0.0736722 0.0
0.071931 0.0789442 0.0
0.0706789 0.0801931 0.0
0.0697102 0.0812062 0.0
0.0687414 0.0822192 0.0
0.06 0.1 0.0
0.067089 0.083113 0.0
0.0658988 0.0853714 0.0
0.0649265 0.0886422 0.0
0.0651753 0.0871579 0.0
0.0628867 0.0943773 0.0
0.0612682 0.0961045 0.0
0.0625156 0.0925031 0.0
0.0721663 0.0747069 0.0
0.1 0.046 0.0
0.0980962 0.0460418 0.0
0.0961923 0.0460836 0.0
0.0919863 0.051913 0.0
0.0939877 0.0484008 0.0
0.092005 0.048533 0.0
0.0920045 0.05 0.0
0.0942885 0.0461254 0.0
0.0900609 0.0518921 0.0
0.0887362 0.0537528 0.0
0.0867909 0.0612205 0.0
0.0852235 0.0623371 0.0
0.0845632 0.0635996 0.0
0.0886714 0.0553135 0.0
0.0886067 0.0568743 0.0
0.088517 0.0584286 0.0
0.0865523 0.0596562 0.0
0.0762917 0.0716028 0.0
0.0776668 0.0705681 0.0
0.0790419 0.0695335 0.0
0.0803834 0.068241 0.0
0.0811895 0.0667518 0.0
0.0822215 0.0643255 0.0
0.0713305 0.0772008 0.0
0.0707911 0.0757416 0.0
0.0621566 0.0906903 0.0
0.063097 0.0888932 0.0
0.0597598 0.0980521 0.0
0.0730925 0.0719829 0.0
0.0745246 0.0709438 0.0
0.0716605 0.073022 0.0
0.0700452 0.0784787 0.0
0.0690486 0.0795044 0.0
0.0680519 0.0805301 0.0
[...]
POINT_DATA 3393
VECTORS u float
0.00360475 -0.00520921 0.0
0.00353475 -0.00517198 0.0
0.00356749 -0.0051042 0.0
0.00353025 -0.00499916 0.0
0.00346479 -0.00513473 0.0
0.00346248 -0.00504838 0.0
0.00350839 -0.00504438 0.0
0.00346843 -0.00494501 0.0
0.00349307 -0.0048941 0.0
0.00341931 -0.00504668 0.0
0.00339486 -0.00509741 0.0
0.00336838 -0.0049699 0.0
0.00339021 -0.00492476 0.0
0.00341209 -0.00487957 0.0
0.003434 -0.00483433 0.0
0.00345595 -0.00478904 0.0
0.00334661 -0.00501498 0.0
0.00332497 -0.00505994 0.0
0.00330147 -0.00492605 0.0
0.00341887 -0.00468398 0.0
0.00332489 -0.0048778 0.0
0.00334836 -0.00482946 0.0
0.00336021 -0.00475965 0.0
0.00338952 -0.00472184 0.0
0.00327815 -0.0049742 0.0
0.00325503 -0.00502223 0.0
0.0032584 -0.00483311 0.0
0.00323374 -0.00488359 0.0
0.00338182 -0.00457891 0.0
0.00335709 -0.00462995 0.0
0.00328309 -0.00478252 0.0
0.00330775 -0.0047318 0.0
0.00333241 -0.00468095 0.0
0.00334475 -0.00447378 0.0
0.00330776 -0.00436858 0.0
0.00320922 -0.00493398 0.0
0.00318498 -0.00498429 0.0
0.00314934 -0.00484179 0.0
0.00320238 -0.00468519 0.0
0.00318477 -0.00473739 0.0
0.00316694 -0.00478963 0.0
0.00332169 -0.00452156 0.0
0.003255 -0.00452761 0.0
0.00321997 -0.00463284 0.0
0.0032375 -0.00458031 0.0
0.00327062 -0.0042631 0.0
0.00324225 -0.00430789 0.0
0.0032328 -0.00437225 0.0
0.00313187 -0.00489395 0.0
0.00311477 -0.00494601 0.0
0.00309184 -0.00481045 0.0
0.00310076 -0.00474785 0.0
0.00315794 -0.004588 0.0
0.00313898 -0.00464136 0.0
0.00308876 -0.00463856 0.0
0.00321407 -0.00442656 0.0
0.00319541 -0.00448069 0.0
0.00317673 -0.00453453 0.0
0.00323358 -0.00415726 0.0
0.00320971 -0.00420675 0.0
0.00318622 -0.00425626 0.0
0.00316298 -0.00430543 0.0
0.00306781 -0.00485886 0.0
0.00304419 -0.00490735 0.0
0.00304223 -0.00473035 0.0
0.00301896 -0.00477623 0.0
0.00299849 -0.00463991 0.0
0.00302257 -0.00459287 0.0
0.00310978 -0.00450421 0.0
0.00309052 -0.00455655 0.0
0.00304655 -0.00454577 0.0
0.00313983 -0.0043543 0.0
0.00311671 -0.00440279 0.0
0.00306167 -0.00442067 0.0
0.00319633 -0.00405092 0.0
0.00317333 -0.004099 0.0
0.00315058 -0.00414729 0.0
0.00312823 -0.00419513 0.0
0.00310612 -0.00424256 0.0
0.00299581 -0.00482223 0.0
0.00297313 -0.00486832 0.0
0.00294828 -0.00456275 0.0
0.00297404 -0.00468695 0.0
0.00295902 -0.00474302 0.0
0.00292446 -0.00460761 0.0
0.00297172 -0.00451788 0.0
0.00299487 -0.00447287 0.0
0.00304235 -0.00447199 0.0
0.00308407 -0.00428959 0.0
0.00306201 -0.00433606 0.0
0.0029925 -0.00434524 0.0
0.00315952 -0.00394401 0.0
0.00311885 -0.00397978 0.0
0.00303027 -0.00417273 0.0
0.00308856 -0.00404498 0.0
0.00306831 -0.00408928 0.0
0.00305195 -0.00412524 0.0
0.0031229 -0.00383627 0.0
0.00292994 -0.00478581 0.0
0.00290136 -0.00482888 0.0
0.00286798 -0.00449728 0.0
0.00290137 -0.00447128 0.0
0.00290052 -0.00465258 0.0
0.00287643 -0.00469777 0.0
0.00285771 -0.00456924 0.0
0.00292296 -0.00442432 0.0
0.00295939 -0.00437093 0.0
0.00300554 -0.00422532 0.0
0.00296479 -0.00424789 0.0
0.0029239 -0.00426967 0.0
0.00308676 -0.00372743 0.0
0.00294903 -0.00411523 0.0
0.00307974 -0.00387521 0.0
0.0030415 -0.00391007 0.0
0.00297634 -0.00405639 0.0
0.00301917 -0.00395962 0.0
0.00299748 -0.00400841 0.0
0.00304547 -0.00377093 0.0
0.00305156 -0.00361736 0.0
0.00280995 -0.00447514 0.0
0.0028522 -0.00474319 0.0
0.00282866 -0.00478911 0.0
0.00282383 -0.00441103 0.0
0.00285134 -0.00437517 0.0
0.00281865 -0.00458607 0.0
0.00277444 -0.0045937 0.0
0.0027628 -0.00447486 0.0
0.00301741 -0.0035059 0.0
0.00287591 -0.00434026 0.0
0.00290021 -0.00430511 0.0
0.00291875 -0.00414247 0.0
0.00288832 -0.00416904 0.0
0.00283967 -0.00417674 0.0
0.00287238 -0.00403772 0.0
0.00300749 -0.00366216 0.0
0.00289259 -0.00400582 0.0
0.00300024 -0.00380846 0.0
0.00296453 -0.00384209 0.0
0.00292201 -0.00394065 0.0
0.00294286 -0.00389183 0.0
0.00296839 -0.00370793 0.0
0.0029742 -0.00355542 0.0
0.00276121 -0.00437648 0.0
0.00276863 -0.00467671 0.0
0.00281281 -0.00427741 0.0
0.00275515 -0.00474955 0.0
0.00278028 -0.00432533 0.0
0.00269108 -0.00432791 0.0
0.00272317 -0.00449122 0.0
0.00271065 -0.00456396 0.0
0.00268256 -0.00440768 0.0
0.00298498 -0.00339305 0.0
0.00293737 -0.00344839 0.0
0.00279082 -0.00418347 0.0
0.0028524 -0.00406896 0.0
0.00282128 -0.00409553 0.0
0.00276126 -0.00409494 0.0
0.00281655 -0.00397133 0.0
0.00292871 -0.00359973 0.0
0.00283695 -0.00389904 0.0
0.00292129 -0.0037437 0.0
0.00288819 -0.00377549 0.0
0.00285443 -0.00385684 0.0
0.00287166 -0.00381546 0.0
0.00289192 -0.00364705 0.0
0.00289678 -0.00350382 0.0
0.00271023 -0.00427566 0.0
0.00269465 -0.00463472 0.0
0.00275 -0.00421422 0.0
0.00268012 -0.00471003 0.0
0.00269196 -0.0041937 0.0
0.00264098 -0.00422528 0.0
0.00262078 -0.00427861 0.0
0.00265512 -0.00445156 0.0
0.00263708 -0.00451997 0.0
0.00260209 -0.00433967 0.0
0.00295441 -0.00327877 0.0
0.00290642 -0.00334364 0.0
0.00285824 -0.00339418 0.0
0.0029263 -0.00316292 0.0
0.00271586 -0.00408641 0.0
0.00277598 -0.0039945 0.0
0.00273133 -0.00400698 0.0
0.00269038 -0.00401234 0.0
0.002781 -0.00387508 0.0
0.00275067 -0.0039083 0.0
0.0028507 -0.00353973 0.0
0.00274477 -0.00377947 0.0
0.0027991 -0.00381803 0.0
0.00284313 -0.00368062 0.0
0.00281286 -0.00371056 0.0
0.00279808 -0.0037525 0.0
0.00281627 -0.00358796 0.0
0.00282057 -0.0034511 0.0
0.0026222 -0.00459835 0.0
0.00267641 -0.00408264 0.0
0.00260358 -0.00467089 0.0
0.00263661 -0.00407867 0.0
0.00262067 -0.00412491 0.0
0.00258662 -0.00413361 0.0
0.00257186 -0.00417446 0.0
0.00255046 -0.00422891 0.0
0.00257739 -0.00441048 0.0
0.00256747 -0.00448679 0.0
0.00253001 -0.00429178 0.0
0.00287756 -0.00323347 0.0
0.00282892 -0.00329757 0.0
0.00278014 -0.0033428 0.0
0.00290105 -0.00304576 0.0
0.00287935 -0.00292724 0.0
0.00284649 -0.00311944 0.0
0.00264206 -0.00398941 0.0
0.00270061 -0.00391973 0.0
0.00266454 -0.00393864 0.0
0.00268584 -0.00384506 0.0
0.00270791 -0.00382139 0.0
0.00277364 -0.00348175 0.0
0.00269034 -0.00372964 0.0
0.00270788 -0.00368396 0.0
0.00276697 -0.00361989 0.0
0.00274131 -0.00364928 0.0
0.00274253 -0.00353118 0.0
0.00274532 -0.00340033 0.0
0.00254533 -0.00455623 0.0
0.00258264 -0.0039648 0.0
0.00252534 -0.00463256 0.0
0.00258422 -0.00402717 0.0
0.00255012 -0.00405509 0.0
0.00252144 -0.00407618 0.0
0.0024722 -0.00418789 0.0
0.00250287 -0.00412319 0.0
0.00251576 -0.0043757 0.0
0.00249506 -0.00443914 0.0
0.00246631 -0.00426527 0.0
0.00286172 -0.00280768 0.0
0.00280193 -0.00319139 0.0
0.00275251 -0.00325421 0.0
0.00270314 -0.00329338 0.0
0.00282247 -0.00300669 0.0
0.00280181 -0.00289273 0.0
0.00276817 -0.00307928 0.0
0.00256966 -0.00389276 0.0
0.00259903 -0.00387005 0.0
0.00262747 -0.00384611 0.0
0.00263642 -0.00376672 0.0
0.00264067 -0.00371314 0.0
0.00261319 -0.00364272 0.0
0.0026994 -0.00342671 0.0
0.00264606 -0.00362891 0.0
0.00267182 -0.00347723 0.0
0.00267086 -0.00358864 0.0
0.00269392 -0.00356207 0.0
0.0026727 -0.00335232 0.0
0.00247222 -0.00451936 0.0
0.00251183 -0.00383528 0.0
0.00251422 -0.00389627 0.0
0.00244528 -0.00459534 0.0
0.00249808 -0.00394048 0.0
0.00248064 -0.00398509 0.0
0.00242001 -0.00415708 0.0
0.0024567 -0.00401827 0.0
0.00242436 -0.00408175 0.0
0.00244622 -0.00432404 0.0
0.00242299 -0.00440668 0.0
0.00239146 -0.00421499 0.0
0.00284777 -0.00268754 0.0
0.00278529 -0.00278377 0.0
0.00272748 -0.00315176 0.0
0.00267782 -0.00319564 0.0
0.00262964 -0.0032473 0.0
0.0027108 -0.00276148 0.0
0.00272607 -0.00286066 0.0
0.00274553 -0.0029706 0.0
0.00269122 -0.00304161 0.0
0.00252836 -0.00379476 0.0
0.00255038 -0.00375471 0.0
0.00256611 -0.00371166 0.0
0.00259223 -0.00369508 0.0
0.00256884 -0.00361503 0.0
0.00258482 -0.00357261 0.0
0.00262473 -0.0033928 0.0
0.00260223 -0.00342388 0.0
0.00260134 -0.0035283 0.0
0.00262177 -0.0035049 0.0
0.00260256 -0.00330613 0.0
0.0023925 -0.00447849 0.0
0.0024749 -0.00374137 0.0
0.00246161 -0.00378412 0.0
0.00244686 -0.00382698 0.0
0.00236324 -0.00456 0.0
0.0024365 -0.00387756 0.0
0.0024118 -0.00391408 0.0
0.00237684 -0.0040528 0.0
0.00234655 -0.00410547 0.0
0.00237794 -0.00397634 0.0
0.0023772 -0.00429472 0.0
0.00234411 -0.00436242 0.0
0.0023343 -0.00418352 0.0
0.00283736 -0.002567 0.0
0.00277215 -0.00267441 0.0
0.00269854 -0.00266207 0.0
0.00265409 -0.00311413 0.0
0.00260621 -0.00315295 0.0
0.0025578 -0.00320267 0.0
0.00263792 -0.00274047 0.0
0.00265181 -0.00283052 0.0
0.00266994 -0.00293673 0.0
0.00261549 -0.00300572 0.0
0.00248667 -0.00369821 0.0
0.0024972 -0.00365489 0.0
0.00250663 -0.00361048 0.0
0.00251532 -0.00356479 0.0
0.002524 -0.00351742 0.0
0.00253279 -0.00346846 0.0
0.00255324 -0.00334336 0.0
0.00255542 -0.00342842 0.0
0.00253344 -0.00326055 0.0
0.00243678 -0.00365147 0.0
0.00231675 -0.00444459 0.0
0.00242123 -0.00369043 0.0
0.00240392 -0.00372931 0.0
0.0023849 -0.0037683 0.0
0.0022793 -0.00452667 0.0
0.00235674 -0.00382537 0.0
0.00233279 -0.00387159 0.0
0.00231682 -0.00399139 0.0
0.00229461 -0.0040756 0.0
0.00227793 -0.00388462 0.0
0.00229946 -0.00424728 0.0
0.00227464 -0.00433019 0.0
0.00225767 -0.00413306 0.0
0.00283196 -0.00244624 0.0
0.00275739 -0.00255175 0.0
0.00268139 -0.00255021 0.0
0.00262665 -0.00265021 0.0
0.00275477 -0.0024437 0.0
0.00258406 -0.00307894 0.0
0.00248704 -0.00315846 0.0
0.00253587 -0.003124 0.0
0.00256555 -0.00272021 0.0
0.00257956 -0.00282342 0.0
0.0025967 -0.0029251 0.0
0.00254395 -0.00297263 0.0
0.00240454 -0.00356773 0.0
0.00242024 -0.00353065 0.0
0.00243515 -0.00349211 0.0
0.00244995 -0.00345153 0.0
0.00248592 -0.00336957 0.0
0.00246513 -0.00340844 0.0
0.0024503 -0.00330402 0.0
0.00248299 -0.00329473 0.0
0.0024652 -0.00321554 0.0
0.0023872 -0.00360315 0.0
0.00233507 -0.00351908 0.0
0.00223652 -0.00441352 0.0
0.00236795 -0.00363821 0.0
0.00234668 -0.00367321 0.0
0.00232318 -0.00370891 0.0
0.00219335 -0.004496 0.0
0.00228908 -0.00376743 0.0
0.00224 -0.00377868 0.0
0.0022197 -0.00402344 0.0
0.00222853 -0.00386286 0.0
0.00225732 -0.00397072 0.0
0.00223614 -0.0042168 0.0
0.0021979 -0.0043016 0.0
0.00218843 -0.00410724 0.0
0.00231366 -0.00345259 0.0
0.00283352 -0.00232644 0.0
0.00275472 -0.00233591 0.0
0.00255595 -0.00263866 0.0
0.00267806 -0.0024399 0.0
0.00260281 -0.00243466 0.0
0.00260628 -0.0025415 0.0
0.00267825 -0.00234202 0.0
0.00248881 -0.00262706 0.0
0.00251565 -0.00304461 0.0
0.00244226 -0.00315009 0.0
0.00246661 -0.00307104 0.0
0.00249778 -0.00270088 0.0
0.00251046 -0.00280098 0.0
0.00252628 -0.00289977 0.0
0.00247319 -0.00293975 0.0
0.0023358 -0.00343073 0.0
0.00235751 -0.00340663 0.0
0.00237919 -0.00338014 0.0
0.00240139 -0.00335086 0.0
0.00241849 -0.00331142 0.0
0.00239891 -0.00324991 0.0
0.00239844 -0.00314057 0.0
0.00241662 -0.00321927 0.0
0.00231878 -0.00354954 0.0
0.00227305 -0.00345341 0.0
0.0021531 -0.00400009 0.0
0.00215228 -0.00437824 0.0
0.00227984 -0.00335407 0.0
0.00225982 -0.00337066 0.0
0.00230059 -0.00357992 0.0
0.00228036 -0.00361088 0.0
0.00226394 -0.00363765 0.0
0.00224549 -0.00366562 0.0
0.00210567 -0.00446879 0.0
0.00220266 -0.00367311 0.0
0.00218627 -0.00376347 0.0
0.00218377 -0.00391558 0.0
0.00217848 -0.00384175 0.0
0.00216256 -0.00419078 0.0
0.00211543 -0.00426198 0.0
0.00213004 -0.00408094 0.0
0.0022393 -0.00338662 0.0
0.00283876 -0.0022075 0.0
0.00276441 -0.00221494 0.0
0.00269176 -0.00221939 0.0
0.00253266 -0.0025324 0.0
0.002603 -0.00234631 0.0
0.00252949 -0.00234898 0.0
0.00252927 -0.00242858 0.0
0.00262058 -0.00222147 0.0
0.0024619 -0.00252285 0.0
0.00242174 -0.00261532 0.0
0.00243385 -0.00298917 0.0
0.00239809 -0.00303031 0.0
0.0023975 -0.00308634 0.0
0.00243042 -0.00269727 0.0
0.00244258 -0.00277887 0.0
0.00245628 -0.00285959 0.0
0.00240294 -0.00290714 0.0
0.00229935 -0.0033357 0.0
0.00231876 -0.00331518 0.0
0.00233848 -0.00329227 0.0
0.00235272 -0.00325428 0.0
0.00234792 -0.0031962 0.0
0.00233371 -0.00309466 0.0
0.00225634 -0.00348303 0.0
0.00221726 -0.00340161 0.0
0.00210025 -0.0039755 0.0
0.00211955 -0.00389445 0.0
0.00207274 -0.00435228 0.0
0.00221537 -0.00328349 0.0
0.00223561 -0.00326866 0.0
0.00219439 -0.00329697 0.0
0.00223714 -0.00351322 0.0
0.00222106 -0.00353886 0.0
0.00220357 -0.00356583 0.0
0.00216617 -0.00357159 0.0
0.0021428 -0.00360438 0.0
0.00201651 -0.00444487 0.0
0.00211505 -0.00370136 0.0
0.00211757 -0.00363889 0.0
0.00208764 -0.0037891 0.0
0.00208191 -0.00414706 0.0
0.00204347 -0.00423748 0.0
0.00205105 -0.00403334 0.0
0.00217245 -0.00330931 0.0
0.00284737 -0.00208965 0.0
0.00277303 -0.00210752 0.0
0.00270029 -0.00212153 0.0
0.00262878 -0.00213254 0.0
0.00245862 -0.00242178 0.0
0.00255036 -0.00222183 0.0
0.00248356 -0.00222087 0.0
0.00245884 -0.00235031 0.0
0.00255825 -0.00214114 0.0
0.00238835 -0.00243153 0.0
0.00239138 -0.0025129 0.0
0.00235503 -0.00260317 0.0
0.00236474 -0.00295256 0.0
0.00229919 -0.00302225 0.0
0.00233067 -0.00299026 0.0
0.00237306 -0.00272089 0.0
0.002387 -0.00281506 0.0
0.00230547 -0.00269384 0.0
0.00233322 -0.00287475 0.0
0.00230912 -0.00312173 0.0
0.00226422 -0.00326647 0.0
0.00227592 -0.00323212 0.0
0.00228762 -0.00319549 0.0
0.00228268 -0.0031462 0.0
0.00227003 -0.00304738 0.0
0.00208786 -0.00354108 0.0
0.0021935 -0.00341667 0.0
0.00214883 -0.00332155 0.0
0.00207074 -0.00388851 0.0
0.00202264 -0.00392495 0.0
0.00204243 -0.00380178 0.0
0.00198808 -0.00432995 0.0
0.00214876 -0.00320819 0.0
0.00220441 -0.00319778 0.0
0.00217056 -0.0031977 0.0
0.002126 -0.00321729 0.0
0.0021777 -0.00345601 0.0
0.00213842 -0.00345043 0.0
0.0020848 -0.00346313 0.0
0.00192594 -0.00442542 0.0
0.00205579 -0.00368441 0.0
0.00204935 -0.00357655 0.0
0.00201353 -0.0036956 0.0
0.002017 -0.00412407 0.0
0.00196278 -0.00421689 0.0
0.00199267 -0.00401181 0.0
0.00210192 -0.00322608 0.0
0.0028603 -0.00197345 0.0
0.00287656 -0.00185917 0.0
0.0029423 -0.00153025 0.0
0.00291797 -0.00163733 0.0
0.00289607 -0.00174707 0.0
0.00278565 -0.00199569 0.0
0.00271241 -0.00201338 0.0
0.00264028 -0.0020276 0.0
0.002569 -0.00203901 0.0
0.00296779 -0.00142575 0.0
0.00299444 -0.0013239 0.0
0.00302116 -0.00122461 0.0
0.00304785 -0.00112771 0.0
0.00307364 -0.001033 0.0
0.00309832 -0.000940428 0.0
0.00238854 -0.00235043 0.0
0.00249109 -0.00214768 0.0
0.00241677 -0.00221859 0.0
0.00250112 -0.0020478 0.0
0.00233583 -0.00242854 0.0
0.00232113 -0.00250233 0.0
0.00228915 -0.00258978 0.0
0.00231865 -0.00235016 0.0
0.00228007 -0.00288695 0.0
0.00223498 -0.00297798 0.0
0.00226531 -0.00295007 0.0
0.00222598 -0.00257694 0.0
0.00231834 -0.00278541 0.0
0.00223957 -0.00266744 0.0
0.0022544 -0.00279831 0.0
0.00224465 -0.00307237 0.0
0.00221376 -0.00316994 0.0
0.00222423 -0.00313608 0.0
0.00221864 -0.00309453 0.0
0.00220673 -0.00299872 0.0
0.00217192 -0.00293212 0.0
0.00204164 -0.00351034 0.0
0.00209423 -0.00340831 0.0
0.00213447 -0.00335731 0.0
0.00208921 -0.0032583 0.0
0.00199583 -0.00381707 0.0
0.00195202 -0.00390612 0.0
0.00196983 -0.00370931 0.0
0.00190647 -0.00431143 0.0
0.00206469 -0.00310721 0.0
0.00215107 -0.00310477 0.0
0.00212202 -0.00304335 0.0
0.00210314 -0.00312132 0.0
0.00212724 -0.00311469 0.0
0.00205283 -0.00313115 0.0
0.00199516 -0.00348123 0.0
0.00209871 -0.00335376 0.0
0.0020158 -0.00339306 0.0
0.00204973 -0.00336491 0.0
0.00183452 -0.00440975 0.0
0.00199185 -0.00356333 0.0
0.0019441 -0.0036017 0.0
0.00193977 -0.00410531 0.0
0.00188929 -0.00419943 0.0
0.00191833 -0.0039949 0.0
0.00204157 -0.00315963 0.0
0.00280137 -0.0018855 0.0
0.00282062 -0.00178254 0.0
0.0028949 -0.0014728 0.0
0.00286966 -0.00157044 0.0
0.00284213 -0.00168134 0.0
0.00272775 -0.00191757 0.0
0.00265492 -0.00194025 0.0
0.00258291 -0.00195963 0.0
0.00251432 -0.00197588 0.0
0.00292458 -0.00137089 0.0
0.00295043 -0.00127369 0.0
0.00298061 -0.00117892 0.0
0.00300651 -0.00108823 0.0
0.0030339 -0.000994047 0.0
0.00312234 -0.000849718 0.0
0.0030734 -0.000892795 0.0
0.00314427 -0.00076075 0.0
0.00239094 -0.00215804 0.0
0.00235052 -0.00221576 0.0
0.00228536 -0.00221281 0.0
0.00243304 -0.00208723 0.0
0.00244608 -0.0019908 0.0
0.00228375 -0.00242504 0.0
0.00225221 -0.00249088 0.0
0.00226634 -0.00228105 0.0
0.00224994 -0.00234886 0.0
0.00218859 -0.0025213 0.0
0.00216368 -0.00256312 0.0
0.00221291 -0.00284763 0.0
0.00220054 -0.00290869 0.0
0.00217446 -0.00264055 0.0
0.00221358 -0.00271923 0.0
0.00219048 -0.0027715 0.0
0.00222122 -0.0022093 0.0
0.00218117 -0.0030212 0.0
0.00215551 -0.00304007 0.0
0.00214346 -0.00294796 0.0
0.00213753 -0.00286584 0.0
0.00205687 -0.0032565 0.0
0.00201267 -0.00315973 0.0
0.00192735 -0.00379997 0.0
0.0018988 -0.00388959 0.0
0.00190354 -0.00369408 0.0
0.00181983 -0.00429688 0.0
0.00200001 -0.00303483 0.0
0.00204415 -0.00304642 0.0
0.00209305 -0.00298208 0.0
0.00209437 -0.00303333 0.0
0.00203771 -0.00300526 0.0
0.00199079 -0.00306141 0.0
0.00192925 -0.00343028 0.0
0.00193869 -0.00336397 0.0
0.00201334 -0.00326678 0.0
0.00196057 -0.00327561 0.0
0.00174219 -0.0043975 0.0
0.00191873 -0.00349703 0.0
0.00187977 -0.00358818 0.0
0.00187366 -0.00408907 0.0
0.00180712 -0.00418666 0.0
0.00185895 -0.0039798 0.0
0.00196534 -0.00306373 0.0
0.00274621 -0.00181257 0.0
0.0028545 -0.00141293 0.0
0.00276696 -0.0017195 0.0
0.00282207 -0.00151443 0.0
0.00279811 -0.00161377 0.0
0.00267259 -0.00183811 0.0
0.0025996 -0.0018602 0.0
0.00253025 -0.00187881 0.0
0.00246106 -0.00189586 0.0
0.00316358 -0.00067364 0.0
0.00287921 -0.00131793 0.0
0.00291254 -0.00122621 0.0
0.00293827 -0.00114006 0.0
0.00296813 -0.00104488 0.0
0.00300916 -0.000943021 0.0
0.00304812 -0.000842721 0.0
0.00309573 -0.00080027 0.0
0.00312032 -0.000707037 0.0
0.00236603 -0.00209876 0.0
0.00229876 -0.00210934 0.0
0.002378 -0.00200426 0.0
0.00239204 -0.00191134 0.0
0.00218303 -0.00238929 0.0
0.00215204 -0.0024465 0.0
0.00218632 -0.00225651 0.0
0.00215107 -0.00232264 0.0
0.00212231 -0.00250241 0.0
0.0021052 -0.00258055 0.0
0.00214618 -0.0028069 0.0
0.00212232 -0.00269515 0.0
0.00215796 -0.00220629 0.0
0.00219555 -0.00214015 0.0
0.0020935 -0.00295224 0.0
0.00208138 -0.00289371 0.0
0.00207521 -0.0028209 0.0
0.00206861 -0.00276708 0.0
0.00200113 -0.0029745 0.0
0.00194377 -0.00308223 0.0
0.00197413 -0.00316836 0.0
0.00182593 -0.00387676 0.0
0.00186858 -0.00378476 0.0
0.00184834 -0.00368005 0.0
0.00173294 -0.00428042 0.0
0.00191058 -0.00326665 0.0
0.00203174 -0.00296335 0.0
0.00193487 -0.00296079 0.0
0.00194251 -0.00293593 0.0
0.00195039 -0.00291911 0.0
0.00195824 -0.00290267 0.0
0.00203165 -0.00289009 0.0
0.00203094 -0.00291995 0.0
0.00196635 -0.00288703 0.0
0.00191241 -0.00297299 0.0
0.00186649 -0.00338273 0.0
0.00184398 -0.00328139 0.0
0.00192718 -0.00317655 0.0
0.00188092 -0.00316889 0.0
0.00165005 -0.00439473 0.0
0.00165165 -0.00427625 0.0
0.00182388 -0.00347408 0.0
0.00180465 -0.00356392 0.0
0.00179499 -0.00407787 0.0
0.00172367 -0.00416485 0.0
0.00176277 -0.00394403 0.0
0.00189394 -0.00298218 0.0
0.00269241 -0.00175293 0.0
0.00280784 -0.00135798 0.0
0.00278441 -0.00145072 0.0
0.00272657 -0.00164837 0.0
0.00274946 -0.0015514 0.0
0.00261852 -0.00178258 0.0
0.00256728 -0.00177812 0.0
0.00243825 -0.0018289 0.0
0.00248936 -0.00181329 0.0
0.00322222 -0.0003325 0.0
0.00318227 -0.000587056 0.0
0.00321152 -0.00041648 0.0
0.00319746 -0.000501039 0.0
0.00284405 -0.00126999 0.0
0.0027754 -0.00131071 0.0
0.00286924 -0.00118886 0.0
0.00290145 -0.0010931 0.0
0.00294387 -0.000991002 0.0
0.0029842 -0.000890096 0.0
0.00302225 -0.000790331 0.0
0.0030685 -0.000748246 0.0
0.00309505 -0.000650949 0.0
0.00223493 -0.00207346 0.0
0.00230995 -0.00201675 0.0
0.00232296 -0.00192578 0.0
0.00238721 -0.00184366 0.0
0.00211792 -0.00238018 0.0
0.00208655 -0.00243254 0.0
0.00212039 -0.00225727 0.0
0.00208533 -0.00231827 0.0
0.00205772 -0.00248288 0.0
0.00204499 -0.00255761 0.0
0.00205337 -0.00263658 0.0
0.00206375 -0.00271228 0.0
0.00213265 -0.00214217 0.0
0.00209638 -0.0022036 0.0
0.00217037 -0.00207949 0.0
0.00202052 -0.00283747 0.0
0.00201447 -0.00277174 0.0
0.00201635 -0.00271805 0.0
0.00189687 -0.00303132 0.0
0.00189041 -0.00307867 0.0
0.00174724 -0.00383443 0.0
0.00180912 -0.00377301 0.0
0.00179225 -0.00366919 0.0
0.00165095 -0.00416047 0.0
0.00181995 -0.00318009 0.0
0.00196719 -0.00285026 0.0
0.00184969 -0.00298064 0.0
0.00185401 -0.00287062 0.0
0.00187311 -0.00285749 0.0
0.00188068 -0.00283409 0.0
0.00188875 -0.00281798 0.0
0.00189799 -0.00280337 0.0
0.00196764 -0.00282221 0.0
0.00190119 -0.0027726 0.0
0.00183656 -0.00288086 0.0