# vtk DataFile Version 2.0
Vtkoutput example
ASCII

DATASET UNSTRUCTURED_GRID
POINTS 36864 float
0.0201562 0.0201562 0.0
0.0204687 0.0201562 0.0
0.0207812 0.0201562 0.0
0.0210937 0.0201562 0.0
0.0214062 0.0201562 0.0
0.0217187 0.0201562 0.0
0.0220312 0.0201562 0.0
0.0223437 0.0201562 0.0
0.0226562 0.0201562 0.0
0.0229687 0.0201562 0.0
0.0232812 0.0201562 0.0
0.0235937 0.0201562 0.0
0.0239062 0.0201562 0.0
0.0242187 0.0201562 0.0
0.0245312 0.0201562 0.0
0.0248437 0.0201562 0.0
0.0251562 0.0201562 0.0
0.0254687 0.0201562 0.0
0.0257812 0.0201562 0.0
0.0260937 0.0201562 0.0
0.0264062 0.0201562 0.0
0.0267187 0.0201562 0.0
0.0270312 0.0201562 0.0
0.0273438 0.0201562 0.0
0.0276562 0.0201562 0.0
0.0279687 0.0201562 0.0
0.0282813 0.0201562 0.0
0.0285937 0.0201562 0.0
0.0289062 0.0201562 0.0
0.0292187 0.0201562 0.0
0.0295312 0.0201562 0.0
0.0298437 0.0201562 0.0
0.0301563 0.0201562 0.0
0.0304687 0.0201562 0.0
0.0307812 0.0201562 0.0
0.0310937 0.0201562 0.0
0.0314062 0.0201562 0.0
0.0317188 0.0201562 0.0
0.0320312 0.0201562 0.0
0.0323437 0.0201562 0.0
0.0326562 0.0201562 0.0
0.0329688 0.0201562 0.0
0.0332812 0.0201562 0.0
0.0335937 0.0201562 0.0
0.0339062 0.0201562 0.0
0.0342187 0.0201562 0.0
0.0345312 0.0201562 0.0
0.0348437 0.0201562 0.0
0.0351562 0.0201562 0.0
0.0354688 0.0201562 0.0
0.0357813 0.0201562 0.0
0.0360938 0.0201562 0.0
0.0364063 0.0201562 0.0
0.0367188 0.0201562 0.0
0.0370313 0.0201562 0.0
0.0373438 0.0201562 0.0
0.0376563 0.0201562 0.0
0.0379687 0.0201562 0.0
0.0382812 0.0201562 0.0
0.0385938 0.0201562 0.0
0.0389062 0.0201562 0.0
0.0392187 0.0201562 0.0
0.0395313 0.0201562 0.0
0.0398437 0.0201562 0.0
0.0401563 0.0201562 0.0
0.0404687 0.0201562 0.0
0.0407812 0.0201562 0.0
0.0410937 0.0201562 0.0
0.0414062 0.0201562 0.0
0.0417187 0.0201562 0.0
0.0420312 0.0201562 0.0
0.0423437 0.0201562 0.0
0.0426562 0.0201562 0.0
0.0429688 0.0201562 0.0
0.0432813 0.0201562 0.0
0.0435938 0.0201562 0.0
0.0439063 0.0201562 0.0
0.0442188 0.0201562 0.0
0.0445313 0.0201562 0.0
0.0448438 0.0201562 0.0
0.0451562 0.0201562 0.0
0.0454688 0.0201562 0.0
0.0457813 0.0201562 0.0
0.0460938 0.0201562 0.0
0.0464062 0.0201562 0.0
0.0467188 0.0201562 0.0
0.0470312 0.0201562 0.0
0.0473438 0.0201562 0.0
0.0476563 0.0201562 0.0
0.0479687 0.0201562 0.0
0.0482813 0.0201562 0.0
0.0485938 0.0201562 0.0
0.0489062 0.0201562 0.0
0.0492188 0.0201562 0.0
0.0495313 0.0201562 0.0
0.0498437 0.0201562 0.0
0.0501562 0.0201562 0.0
0.0504688 0.0201562 0.0
0.0507812 0.0201562 0.0
0.0510938 0.0201562 0.0
0.0514063 0.0201562 0.0
0.0517187 0.0201562 0.0
0.0520313 0.0201562 0.0
0.0523438 0.0201562 0.0
0.0526563 0.0201562 0.0
0.0529687 0.0201562 0.0
0.0532813 0.0201562 0.0
0.0535938 0.0201562 0.0
0.0539063 0.0201562 0.0
0.0542187 0.0201562 0.0
0.0545313 0.0201562 0.0
0.0548438 0.0201562 0.0
0.0551563 0.0201562 0.0
0.0554688 0.0201562 0.0
0.0557812 0.0201562 0.0
0.0560937 0.0201562 0.0
0.0564062 0.0201562 0.0
0.0567188 0.0201562 0.0
0.0570313 0.0201562 0.0
0.0573438 0.0201562 0.0
0.0576562 0.0201562 0.0
0.0579687 0.0201562 0.0
0.0582813 0.0201562 0.0
0.0585938 0.0201562 0.0
0.0589063 0.0201562 0.0
0.0592188 0.0201562 0.0
0.0595313 0.0201562 0.0
0.0598438 0.0201562 0.0
0.0601563 0.0201562 0.0
0.0604688 0.0201562 0.0
0.0607813 0.0201562 0.0
0.0610938 0.0201562 0.0
0.0614062 0.0201562 0.0
0.0617188 0.0201562 0.0
0.0620313 0.0201562 0.0
0.0623438 0.0201562 0.0
0.0626562 0.0201562 0.0
0.0629688 0.0201562 0.0
0.0632813 0.0201562 0.0
0.0635938 0.0201562 0.0
0.0639062 0.0201562 0.0
0.0642187 0.0201562 0.0
0.0645313 0.0201562 0.0
0.0648438 0.0201562 0.0
0.0651562 0.0201562 0.0
0.0654688 0.0201562 0.0
0.0657812 0.0201562 0.0
0.0660937 0.0201562 0.0
0.0664062 0.0201562 0.0
0.0667188 0.0201562 0.0
0.0670313 0.0201562 0.0
0.0673438 0.0201562 0.0
0.0676563 0.0201562 0.0
0.0679688 0.0201562 0.0
0.0682813 0.0201562 0.0
0.0685938 0.0201562 0.0
0.0689063 0.0201562 0.0
0.0692187 0.0201562 0.0
0.0695313 0.0201562 0.0
0.0698438 0.0201562 0.0
0.0701563 0.0201562 0.0
0.0704687 0.0201562 0.0
0.0707813 0.0201562 0.0
0.0710938 0.0201562 0.0
0.0714063 0.0201562 0.0
0.0717187 0.0201562 0.0
0.0720313 0.0201562 0.0
0.0723437 0.0201562 0.0
0.0726563 0.0201562 0.0
0.0729687 0.0201562 0.0
0.0732813 0.0201562 0.0
0.0735938 0.0201562 0.0
0.0739063 0.0201562 0.0
0.0742188 0.0201562 0.0
0.0745313 0.0201562 0.0
0.0748438 0.0201562 0.0
0.0751563 0.0201562 0.0
0.0754688 0.0201562 0.0
0.0757812 0.0201562 0.0
0.0760938 0.0201562 0.0
0.0764063 0.0201562 0.0
0.0767187 0.0201562 0.0
0.0770313 0.0201562 0.0
0.0773438 0.0201562 0.0
0.0776562 0.0201562 0.0
0.0779688 0.0201562 0.0
0.0782813 0.0201562 0.0
0.0785938 0.0201562 0.0
0.0789063 0.0201562 0.0
0.0792188 0.0201562 0.0
0.0795312 0.0201562 0.0
0.0798438 0.0201562 0.0
0.0201562 0.0204687 0.0
0.0204687 0.0204687 0.0
0.0207812 0.0204687 0.0
0.0210937 0.0204687 0.0
0.0214062 0.0204687 0.0
0.0217187 0.0204687 0.0
0.0220312 0.0204687 0.0
0.0223437 0.0204687 0.0
0.0226562 0.0204687 0.0
0.0229687 0.0204687 0.0
0.0232812 0.0204687 0.0
0.0235937 0.0204687 0.0
0.0239062 0.0204687 0.0
0.0242187 0.0204687 0.0
0.0245312 0.0204687 0.0
0.0248437 0.0204687 0.0
0.0251562 0.0204687 0.0
0.0254687 0.0204687 0.0
0.0257812 0.0204687 0.0
0.0260937 0.0204687 0.0
0.0264062 0.0204687 0.0
0.0267187 0.0204687 0.0
0.0270312 0.0204687 0.0
0.0273438 0.0204687 0.0
0.0276562 0.0204687 0.0
0.0279687 0.0204687 0.0
0.0282813 0.0204687 0.0
0.0285937 0.0204687 0.0
0.0289062 0.0204687 0.0
0.0292187 0.0204687 0.0
0.0295312 0.0204687 0.0
0.0298437 0.0204687 0.0
0.0301563 0.0204687 0.0
0.0304687 0.0204687 0.0
0.0307812 0.0204687 0.0
0.0310937 0.0204687 0.0
0.0314062 0.0204687 0.0
0.0317188 0.0204687 0.0
0.0320312 0.0204687 0.0
0.0323437 0.0204687 0.0
0.0326562 0.0204687 0.0
0.0329688 0.0204687 0.0
0.0332812 0.0204687 0.0
0.0335937 0.0204687 0.0
0.0339062 0.0204687 0.0
0.0342187 0.0204687 0.0
0.0345312 0.0204687 0.0
0.0348437 0.0204687 0.0
0.0351562 0.0204687 0.0
0.0354688 0.0204687 0.0
0.0357813 0.0204687 0.0
0.0360938 0.0204687 0.0
0.0364063 0.0204687 0.0
0.0367188 0.0204687 0.0
0.0370313 0.0204687 0.0
0.0373438 0.0204687 0.0
0.0376563 0.0204687 0.0
0.0379687 0.0204687 0.0
0.0382812 0.0204687 0.0
0.0385938 0.0204687 0.0
0.0389062 0.0204687 0.0
0.0392187 0.0204687 0.0
0.0395313 0.0204687 0.0
0.0398437 0.0204687 0.0
0.0401563 0.0204687 0.0
0.0404687 0.0204687 0.0
0.0407812 0.0204687 0.0
0.0410937 0.0204687 0.0
0.0414062 0.0204687 0.0
0.0417187 0.0204687 0.0
0.0420312 0.0204687 0.0
0.0423437 0.0204687 0.0
0.0426562 0.0204687 0.0
0.0429688 0.0204687 0.0
0.0432813 0.0204687 0.0
0.0435938 0.0204687 0.0
0.0439063 0.0204687 0.0
0.0442188 0.0204687 0.0
0.0445313 0.0204687 0.0
0.0448438 0.0204687 0.0
0.0451562 0.0204687 0.0
0.0454688 0.0204687 0.0
0.0457813 0.0204687 0.0
0.0460938 0.0204687 0.0
0.0464062 0.0204687 0.0
0.0467188 0.0204687 0.0
0.0470312 0.0204687 0.0
0.0473438 0.0204687 0.0
0.0476563 0.0204687 0.0
0.0479687 0.0204687 0.0
0.0482813 0.0204687 0.0
0.0485938 0.0204687 0.0
0.0489062 0.0204687 0.0
0.0492188 0.0204687 0.0
0.0495313 0.0204687 0.0
0.0498437 0.0204687 0.0
0.0501562 0.0204687 0.0
0.0504688 0.0204687 0.0
0.0507812 0.0204687 0.0
0.0510938 0.0204687 0.0
0.0514063 0.0204687 0.0
0.0517187 0.0204687 0.0
0.0520313 0.0204687 0.0
0.0523438 0.0204687 0.0
0.0526563 0.0204687 0.0
0.0529687 0.0204687 0.0
0.0532813 0.0204687 0.0
0.0535938 0.0204687 0.0
0.0539063 0.0204687 0.0
0.0542187 0.0204687 0.0
0.0545313 0.0204687 0.0
0.0548438 0.0204687 0.0
0.0551563 0.0204687 0.0
0.0554688 0.0204687 0.0
0.0557812 0.0204687 0.0
0.0560937 0.0204687 0.0
0.0564062 0.0204687 0.0
0.0567188 0.0204687 0.0
0.0570313 0.0204687 0.0
0.0573438 0.0204687 0.0
0.0576562 0.0204687 0.0
0.0579687 0.0204687 0.0
0.0582813 0.0204687 0.0
0.0585938 0.0204687 0.0
0.0589063 0.0204687 0.0
0.0592188 0.0204687 0.0
0.0595313 0.0204687 0.0
0.0598438 0.0204687 0.0
0.0601563 0.0204687 0.0
0.0604688 0.0204687 0.0
0.0607813 0.0204687 0.0
0.0610938 0.0204687 0.0
0.0614062 0.0204687 0.0
0.0617188 0.0204687 0.0
0.0620313 0.0204687 0.0
0.0623438 0.0204687 0.0
0.0626562 0.0204687 0.0
0.0629688 0.0204687 0.0
0.0632813 0.0204687 0.0
0.0635938 0.0204687 0.0
0.0639062 0.0204687 0.0
0.0642187 0.0204687 0.0
0.0645313 0.0204687 0.0
0.0648438 0.0204687 0.0
0.0651562 0.0204687 0.0
0.0654688 0.0204687 0.0
0.0657812 0.0204687 0.0
0.0660937 0.0204687 0.0
0.0664062 0.0204687 0.0
0.0667188 0.0204687 0.0
0.0670313 0.0204687 0.0
0.0673438 0.0204687 0.0
0.0676563 0.0204687 0.0
0.0679688 0.0204687 0.0
0.0682813 0.0204687 0.0
0.0685938 0.0204687 0.0
0.0689063 0.0204687 0.0
0.0692187 0.0204687 0.0
0.0695313 0.0204687 0.0
0.0698438 0.0204687 0.0
0.0701563 0.0204687 0.0
0.0704687 0.0204687 0.0
0.0707813 0.0204687 0.0
0.0710938 0.0204687 0.0
0.0714063 0.0204687 0.0
0.0717187 0.0204687 0.0
0.0720313 0.0204687 0.0
0.0723437 0.0204687 0.0
0.0726563 0.0204687 0.0
0.0729687 0.0204687 0.0
0.0732813 0.0204687 0.0
0.0735938 0.0204687 0.0
0.0739063 0.0204687 0.0
0.0742188 0.0204687 0.0
0.0745313 0.0204687 0.0
0.0748438 0.0204687 0.0
0.0751563 0.0204687 0.0
0.0754688 0.0204687 0.0
0.0757812 0.0204687 0.0
0.0760938 0.0204687 0.0
0.0764063 0.0204687 0.0
0.0767187 0.0204687 0.0
0.0770313 0.0204687 0.0
0.0773438 0.0204687 0.0
0.0776562 0.0204687 0.0
0.0779688 0.0204687 0.0
0.0782813 0.0204687 0.0
0.0785938 0.0204687 0.0
0.0789063 0.0204687 0.0
0.0792188 0.0204687 0.0
0.0795312 0.0204687 0.0
0.0798438 0.0204687 0.0
0.0201562 0.0207812 0.0
0.0204687 0.0207812 0.0
0.0207812 0.0207812 0.0
0.0210937 0.0207812 0.0
0.0214062 0.0207812 0.0
0.0217187 0.0207812 0.0
0.0220312 0.0207812 0.0
0.0223437 0.0207812 0.0
0.0226562 0.0207812 0.0
0.0229687 0.0207812 0.0
0.0232812 0.0207812 0.0
0.0235937 0.0207812 0.0
0.0239062 0.0207812 0.0
0.0242187 0.0207812 0.0
0.0245312 0.0207812 0.0
0.0248437 0.0207812 0.0
0.0251562 0.0207812 0.0
0.0254687 0.0207812 0.0
0.0257812 0.0207812 0.0
0.0260937 0.0207812 0.0
0.0264062 0.0207812 0.0
0.0267187 0.0207812 0.0
0.0270312 0.0207812 0.0
0.0273438 0.0207812 0.0
0.0276562 0.0207812 0.0
0.0279687 0.0207812 0.0
0.0282813 0.0207812 0.0
0.0285937 0.0207812 0.0
[...]
POINT_DATA 36864
SCALARS Intensity float 1
LOOKUP_TABLE default
0.266634
0.309258
0.312634
0.301484
0.308585
0.270243
0.394201
0.356367
0.274136
0.351712
0.319931
0.231848
0.272694
0.323836
0.295442
0.352305
0.2797
0.344301
0.314602
0.231432
0.400139
0.275617
0.286395
0.219951
0.298432
0.361413
0.32548
0.309579
0.398913
0.363909
0.254687
0.303673
0.299114
0.381094
0.282481
0.303939
0.326346
0.218389
0.30003
0.329979
0.272284
0.274012
0.32229
0.203952
0.23288
0.316688
0.358627
0.220531
0.29436
0.258798
0.285864
0.236215
0.307286
0.256038
0.167248
0.274318
0.267615
0.342335
0.231075
0.311498
0.335724
0.302313
0.302882
0.330315
0.322972
0.295039
0.307172
0.336754
0.350419
0.331103
0.288747
0.346255
0.295091
0.374605
0.213659
0.296473
0.255543
0.323822
0.388903
0.332376
0.351954
0.422859
0.302064
0.208107
0.28877
0.316675
0.229829
0.318115
0.395945
0.253204
0.344152
0.359635
0.337531
0.335232
0.240667
0.330228
0.329352
0.289077
0.289925
0.229388
0.324257
0.378551
0.301591
0.359453
0.298708
0.39109
0.203041
0.209874
0.259476
0.256658
0.282538
0.314282
0.205858
0.271702
0.291553
0.318009
0.29734
0.291691
0.254905
0.348138
0.327218
0.273278
0.309347
0.386351
0.275793
0.349707
0.295869
0.23801
0.344447
0.264688
0.35225
0.341203
0.320796
0.393622
0.286948
0.312618
0.41887
0.343174
0.293396
0.295157
0.336517
0.338821
0.3059
0.284706
0.287788
0.307561
0.291278
0.345964
0.372463
0.211112
0.373634
0.317096
0.264949
0.297889
0.384796
0.33809
0.250974
0.371211
0.281106
0.281427
0.243186
0.310337
0.300626
0.212655
0.180164
0.256234
0.266301
0.255279
0.306785
0.301516
0.209708
0.221853
0.343086
0.296314
0.337707
0.319883
0.353476
0.336892
0.29147
0.328717
0.331894
0.236975
0.264072
0.368476
0.275571
0.322122
0.327303
0.271785
0.262799
0.316316
0.295483
0.256465
0.347668
0.21901
0.376164
0.291892
0.282446
0.337883
0.29888
0.265328
0.268024
0.303903
0.257163
0.290908
0.317166
0.404261
0.285464
0.31309
0.358129
0.27432
0.231995
0.247358
0.319399
0.323669
0.325019
0.346793
0.358814
0.299347
0.349759
0.271357
0.226693
0.282501
0.251768
0.301945
0.354369
0.415562
0.297746
0.324134
0.238498
0.321196
0.31239
0.354196
0.289776
0.376723
0.2812
0.318814
0.301195
0.30177
0.216747
0.365576
0.299125
0.273413
0.252616
0.269981
0.365605
0.227546
0.380288
0.260708
0.229915
0.259938
0.270599
0.235299
0.266226
0.388296
0.330849
0.288104
0.366405
0.219628
0.354149
0.29477
0.217923
0.244019
0.372321
0.372092
0.361873
0.329446
0.310942
0.234491
0.239953
0.291352
0.239811
0.27082
0.249329
0.29071
0.249216
0.37457
0.328244
0.31035
0.325993
0.320112
0.222566
0.257183
0.319389
0.232934
0.337497
0.292137
0.317222
0.308743
0.279214
0.384065
0.356295
0.459927
0.271082
0.343865
0.271808
0.389638
0.273896
0.273521
0.326985
0.414489
0.282688
0.276591
0.380228
0.292042
0.328486
0.328081
0.282411
0.250598
0.195814
0.268832
0.230911
0.354189
0.385942
0.312076
0.248528
0.271811
0.18777
0.263112
0.251289
0.308298
0.307615
0.307362
0.318026
0.236048
0.292324
0.27727
0.265937
0.236355
0.323676
0.18425
0.259934
0.373715
0.20022
0.283923
0.286471
0.341296
0.383159
0.30583
0.348715
0.309028
0.288523
0.292706
0.284143
0.34222
0.187836
0.291277
0.338746
0.276626
0.334611
0.285398
0.381701
0.306024
0.362245
0.320238
0.29734
0.328217
0.289394
0.348449
0.279232
0.211864
0.278248
0.267151
0.252224
0.235459
0.327281
0.294093
0.380518
0.21585
0.167116
0.418997
0.223347
0.273785
0.265131
0.297774
0.338432
0.315379
0.322986
0.291028
0.289373
0.372932
0.298525
0.355791
0.34451
0.283379
0.265634
0.301221
0.305409
0.20812
0.28171
0.303682
0.2831
0.331731
0.24432
0.300021
0.22479
0.221791
0.276788
0.219139
0.257179
0.367431
0.351437
0.335605
0.262217
0.269291
0.386977
0.315702
0.30973
0.299085
0.30063
0.339972
0.263096
0.246716
0.279501
0.191213
0.298534
0.298623
0.329422
0.265252
0.236136
0.287957
0.365736
0.337299
0.319405
0.315706
0.189341
0.300238
0.262231
0.329362
0.297743
0.272832
0.338965
0.27283
0.294094
0.343405
0.245931
0.235022
0.335579
0.299448
0.25879
0.212593
0.204894
0.242339
0.252198
0.271563
0.255409
0.301888
0.265108
0.286184
0.27549
0.245912
0.284376
0.324415
0.326672
0.225167
0.384169
0.334028
0.301845
0.400116
0.333493
0.354919
0.312738
0.271177
0.332171
0.352969
0.366973
0.250179
0.354149
0.370177
0.350612
0.24207
0.238641
0.283322
0.354016
0.262991
0.290543
0.346479
0.232387
0.273312
0.362949
0.22946
0.190714
0.13472
0.22354
0.283153
0.339681
0.348999
0.315279
0.268448
0.291957
0.317437
0.381327
0.345074
0.31972
0.312252
0.383049
0.298613
0.260095
0.332086
0.327319
0.176617
0.29431
0.297029
0.320175
0.412406
0.249789
0.316347
0.276806
0.346318
0.351406
0.29539
0.29903
0.287774
0.348283
0.334163
0.347322
0.252837
0.279729
0.189872
0.284504
0.267632
0.365712
0.319541
0.227597
0.285791
0.323884
0.317924
0.230896
0.368469
0.295909
0.262284
0.244561
0.211859
0.24984
0.310951
0.274971
0.33114
0.338738
0.311627
0.308188
0.31475
0.318742
0.342554
0.320179
0.330728
0.301454
0.286153
0.346104
0.393908
0.272178
0.287213
0.367142
0.335301
0.228438
0.23751
0.294684
0.283647
0.267026
0.316637
0.261915
0.40157
0.352087
0.282062
0.292896
0.337022
0.258196
0.350515
0.254632
0.204289
0.375376
0.346424
0.262702
0.339422
0.314339
0.317269
0.347156
0.353611
0.291707
0.219999
0.278918
0.285966
0.26635
0.360053
0.394382
0.336613
0.355054
0.180421
0.26937
0.300174
0.323609
0.242588
0.322272
0.290582
0.329907
0.40907
0.356447
0.239954
0.272402
0.366136
0.357803
0.26546
0.241842
0.301386
0.222596
0.325766
0.218275
0.384159
0.321003
0.234612
0.259509
0.334131
0.29747
0.318857
0.328263
0.402227
0.214924
0.235336
0.245463
0.223139
0.320313
0.27722
0.275549
0.271647
0.282656
0.285472
0.217979
0.213337
0.285005
0.251014
0.292464
0.285068
0.410307
0.319713
0.363559
0.28962
0.268318
0.315573
0.366793
0.354475
0.0620488
0.43838
0.308363
0.281171
0.288782
0.35635
0.293655
0.257792
0.322267
0.251186
0.328112
0.242132
0.211792
0.342126
0.401023
0.344007
0.35932
0.420386
0.262303
0.263992
0.361585
0.288571
0.300321
0.278297
0.323145
0.323753
0.350337
0.322727
0.348178
0.330364
0.291454
0.319733
0.261606
0.374626
0.364525
0.343049
0.346831
0.273292
0.289877
0.262108
0.232886
0.276769
0.328091
0.275253
0.28588
0.341744
0.248945
0.336398
0.285376
0.330051
0.25882
0.348089
0.230438
0.369082
0.278792
0.280954
0.271938
0.252298
0.256411
0.314621
0.332984
0.433451
0.419838
0.293163
0.322933
0.247831
0.26517
0.35897
0.296571
0.219306
0.245087
0.332343
0.326553
0.235515
0.264667
0.226004
0.236072
0.239655
0.278924
0.295808
0.295202
0.317696
0.261226
0.284101
0.232263
0.314655
0.326249
0.282016
0.30683
0.306557
0.263481
0.261743
0.308705
0.262936
0.326713
0.272109
0.266728
0.267799
0.371355
0.349563
0.317355
0.28511
0.270818
0.289225
0.248345
0.307424
0.281027
0.281189
0.324102
0.333639
0.236287
0.338439
0.306592
0.24925
0.353139
0.351747
0.227315
0.245324
0.2713
0.320622
0.309508
0.17265
0.335961
0.25219
0.285093
0.306403
0.343505
0.296907
0.275943
0.319841
0.385198
0.323595
0.349254
0.356439
0.287848
0.29396
0.334971
0.266384
0.269874
0.285584
0.308716
0.342237
0.294891
0.238761
0.319371
0.265393
0.361174
0.305692
0.234435
0.280753
0.310742
0.270004
0.273422
0.286354
0.415485
0.348557
0.408994
0.360625
0.310002
0.291768
0.228555
0.291845
0.258684
0.318113
0.253945
0.220511
0.329837
0.308249
0.281422
0.323133
0.365585
0.275158
0.341393
0.237519
0.225182
0.339461
0.219924
0.251113
0.243616
0.324252
0.361084
0.348232
0.310007
0.311989
0.262991
0.265638
0.374532
0.181862
0.260128
0.282674
0.249138
0.298549
0.225312
0.337995
0.302123
0.451083
0.341395
0.204265
0.365133
0.318709
0.232818
0.29529
0.311183
0.358612
0.251963
0.271333
0.352385
0.342984
0.306095
0.376711
0.341506
0.376753
0.347266
0.246611
0.346706
0.405395
0.324224
0.248574
0.312716
0.288101
0.324949
0.226852
0.248947
0.34902
0.318511
0.288011
0.295014
0.258709
0.339132
0.273544
0.24765
0.237171
0.187032
0.30934
0.329851
0.303338
0.323125
0.337142
0.361534
0.326879
0.342747
0.281121
0.402826
0.28317
0.341081
0.160753
0.345629
0.300578
0.35693
0.252396
0.219345
0.310793
0.294979
0.245661
0.200134
0.212992
0.196751
0.315672
0.286648
0.263995
0.336093
0.269247
0.321878
0.352776
0.341926
0.299904
0.304586
0.184424
0.303568
0.369488
0.296662
0.304964
0.343099
0.254922
0.286974
0.331455
0.266743
0.29896
0.227603
0.3272
0.369495
0.27628
0.238961
0.277114
0.317843
0.288703
0.224265
0.302527
0.266346
0.298357
0.317051
0.332792
0.283868
0.232534
0.367408
0.290394
0.38407
0.286604
0.38548
0.249628
0.225755
0.302557
0.261375
0.214917
0.300886
0.323677
0.291345
0.309205
0.291067
0.373973
0.326062
0.333842
0.404766
0.289368
0.295004
0.2695
0.309611
0.314088
0.343719
0.325961
0.315498
0.346954
0.269627
0.31039
0.251715
0.275988
0.346757
0.27774
0.242525
0.280442
0.355925
0.338607
0.3137
0.30003
0.281616
0.362417
0.263791
0.244092
0.303781
0.224305
0.305787
0.29738
0.291505
0.302333
0.259581
0.321336
0.219146
0.239029
0.336393
0.277759
0.326711
0.252142
0.342531
0.234076
0.370796
0.366095
0.341066
0.303788
0.203575
0.2475
0.241597
0.346643
0.259722
0.316853
0.261206
0.304108
0.195249
0.357236
0.311373
0.32563
0.305968
0.309718
0.382979
0.2639
0.399297
0.253105
0.293315
0.294649
0.284386
0.383924
0.309447
0.23628
0.314265
0.350151
0.30771
0.282096
0.261233
0.407935
0.278009
0.277794
0.346395
0.253864
0.305053
0.355619
0.20946
0.363643
0.384738
0.444223
0.299663
0.25283
0.381434
0.26776
0.336733
0.342632
0.168022
0.266479
0.331342
0.255787
0.304777
0.321118
0.281346
0.320076
0.412672
0.263292
0.276397
0.284463
0.311738
0.364412
0.388062
0.287298
0.32604
0.334307
0.409492
0.240511
0.16311
0.291943
0.31164
0.348052
0.300903
0.284117
0.297794
0.294453
0.315786
0.392572
0.307447
0.321512
0.382836
0.297597
0.244265
0.353456
0.27057
0.362766
0.265584
0.230478
0.296132
0.287754
0.287821
0.307295
0.244775
0.332877
0.25844
0.298507
0.365826
0.284998
0.340615
0.336044
0.222005
0.277401
0.325127
0.31387
0.308023
0.283639
0.28579
0.34277
0.290142
0.331871
0.286991
0.305882
0.23894
0.220557
0.363494
0.246672
0.320316
0.289637
0.241162
0.26547
0.317151
0.234142
0.339866
0.346075
0.301364
0.400129
0.247587
0.312539
0.272539
0.271434
0.268514
0.351321
0.291184
0.35458
0.267607
0.233502
0.183721
0.344137
0.330212
0.353438
0.25198
0.280334
0.248959
0.31253
0.227954
0.320163
0.260512
0.401198
0.263635
0.339607
0.275957
0.352802
0.244225
0.325865
0.300316
0.276716
0.281282
0.312753
0.359516
0.312083
0.260558
0.316861
0.299041
0.289294
0.299237
0.305329
0.360174
0.305021
0.317071
0.235036
0.252198
0.314083
0.392631
0.333753
0.271504
0.278932
0.333923
0.216015
0.197202
0.319058
0.366298
0.279381
0.323925
0.258257
0.26393
0.197172
0.367229
0.233407
0.288176
0.272547
0.26969
0.334337
0.293532
0.205143
0.313546
0.223729
0.249434
0.286351
0.29338
0.311857
0.346622
0.267638
0.436694
0.261507
0.331009
0.326029
0.26655
0.370911
0.281892
0.263959
0.25037
0.300658
0.306307
0.298473
0.368468
0.297667
0.257058
0.337918
0.316629
0.311577
0.296116
0.325543
0.292604
0.297998
0.32112
0.318884
0.317796
0.24924
0.302717
0.303912
0.280948
0.349379
0.288889
0.337927
0.332947
0.340815
0.391524
0.281238
0.333795
0.266626
0.353861
0.286446
0.331731
0.295641
0.290182
0.279233
0.347916
0.327696
0.313085
0.328469
0.286587
0.309779
0.224094
0.402564
0.368455
0.352275
0.411148
0.315302
0.317159
0.285004
0.242886
0.250795
0.191465
0.249383
0.301399
0.309555
0.264711
0.3503
0.239311
0.245478
0.307797
0.228416
0.28958
0.334173
0.243645
0.375733
0.208525
0.31775
0.243492
0.349076
0.264595
0.338292
0.255295
0.287867
0.352022
0.270476
0.326638
0.317253
0.321889
0.290217
0.380989
0.316701
0.265257
0.22849
0.295334
0.377895
0.294405
0.318081
0.333019
0.325026
0.26944
0.398777
0.279286
0.275567
0.275537
0.270732
0.386433
0.240857
0.316046
0.249897
0.369971
0.335388
0.293939
0.263087
0.324012
0.400396
0.421364
0.328581
0.318938
0.359455
0.259451
0.331914
0.368789
0.259555
0.385469
0.288148
0.262088
0.230918
0.279293
0.338943
0.269818
0.344908
0.351136
0.400904
0.342626
0.137354
0.316818
0.345009
0.257591
0.179907
0.337339
0.28792
0.344827
0.217166
0.343487
0.201218
0.351678
0.227309
0.289385
0.221818
0.358473
0.277838
0.315389
0.33561
0.344572
0.256251
0.233692
0.301435
0.299985
0.206518
0.188614
0.422101
0.404032
0.250901
0.296288
0.295491
0.255244
0.302686
0.359701
0.382441
0.331677
0.26727
0.31302
0.325036
0.244858
0.263873
0.304111
0.246557
0.328842
0.269353
0.353173
0.237813
0.324577
0.196121
0.269026
0.302816
0.275604
0.345871
0.346091
0.389947
0.188525
0.292226
0.305012
0.288598
0.288429
0.306435
0.34683
0.343687
0.314662
0.304897
0.311535
0.374076
0.205852
0.311644
0.297011
0.280484
0.320316
0.34136
0.204912
0.240384
0.261277
0.226608
0.335349
0.340669
0.218052
0.295893
0.267925
0.300931
0.278377
0.323689
0.367256
0.312232
0.291965
0.289276
0.179513
0.248013
0.28305
0.255877
0.282528
0.232227
0.275903
0.316961
0.306863
0.304726
0.278573
0.330294
0.309075
0.264293
0.397946
0.340192
0.361872
0.219038
0.305509
0.297905
0.317737
0.328202
0.344701
0.306904
0.2608
0.299284
0.3128
0.319835
0.229604
0.255311
0.291968
0.24634
0.437701
0.246114
0.254047
0.3734
0.251577
0.368817
0.25163
0.379457
0.274532
0.283314
0.205501
0.259814
0.32653
0.326249
0.245897
0.298143
0.390684
0.194866
0.247262
0.345206
0.272421
0.30312
0.311155
0.314295
0.331066
0.366024
0.33115
0.340842
0.273724
0.383986
0.28186
0.151578
0.162693
0.328331
0.259743
0.267879
0.326213
0.347329
0.287714
0.269586
0.22951
0.361925
0.348836
0.222872
0.275464
0.227804
0.242205
0.269188
0.325148
0.309511
0.240732
0.192151
0.282861
0.295583
0.243057
0.335087
0.284396
0.262986
0.268558
0.30061
0.280081
0.285489
0.24137
0.242482
0.286939
0.252393
0.291149
0.288124
0.372252
0.357971
0.298286
0.365291
0.336354
0.399767
0.222991
0.263642
0.400831
0.352496
0.264283
0.267773
0.289003
0.318384
0.308193
0.293753
0.248472
0.22463
0.335505
0.355547
0.289636
0.277744
0.239346
0.259683
0.320186
0.308312
0.315131
0.233432
0.341732
0.273557
0.235776
0.390602
0.201313
0.361246
0.26736
0.294224
0.380542
0.285999
0.345397
0.340836
0.326231
0.251844
0.220847
0.284435
0.309193
0.277461
0.321738
0.318368
0.242685
0.287636
0.24975
0.206277
0.329549
0.242
0.24283
0.314267
0.304819
0.279052
0.327957
0.277726
0.271988
0.268709
0.286068
0.272391
0.395569
0.324042
0.293989
0.264448
0.240395
0.302287
0.349328
0.313481
0.299792
0.30531
0.299621
0.273873
0.312339
0.334475
0.285602
0.331124
0.255399
0.417727
0.258736
0.294903
0.262233
0.240892
0.270233
0.42164
0.297286
0.324062
0.219283
0.237
0.288489
0.301969
0.366561
0.259591
0.336159
0.253946
0.252147
0.258291
0.19742
0.325816
0.271646
0.240634
0.294661
0.301352
0.380008
0.277999
0.235387
0.246174
0.207925
0.310895
0.270577
0.296052
0.2603
0.323178
0.233084
0.255611
0.395412
0.266306
0.307101
0.421718
0.332106
0.354742
0.311794
0.248736
0.307667
0.359089
0.328854
0.27379
0.24609
0.337037
0.250964
0.273109
0.373731
0.308184
0.30147
0.315463
0.275485
0.278634
0.319224
0.298713
0.35132
0.203744
0.359282
0.268518
0.233421
0.297281
0.327116
0.375089
0.214593
0.335259
0.290292
0.332549
0.339363
0.279431
0.251774
0.305547
0.243528
0.368705
0.20407
0.298707
0.24397
0.276548
0.280135
0.319592
0.307093
0.332529
0.24188
0.417302
0.403923
0.300478
0.207772
0.325581
0.361752
0.359215
0.296442
0.369988
0.28221
0.256213
0.326953
0.223068
0.287391
0.303969
0.265991
0.29329
0.292054
0.281786
0.271101
0.391283
0.381062
0.245907
0.289376
0.372891
0.263943
0.227635
0.238305
0.325287
0.335267
0.350944
0.325483
0.238999
0.300384
0.282321
0.327285
0.287609
0.262686
0.232955
0.390413
0.300377
0.286414
0.266335
0.26648
0.295422
0.460691
0.324825
0.285266
0.361209
0.266767
0.270267
0.257424
0.297458
0.226279
0.249117
0.243526
0.193586
0.401725
0.289576
0.334418
0.286393
0.315682
0.305291
0.258644
0.278281
0.30364
0.427863
0.358176
0.286759
0.312728
0.300283
0.288436
0.354491
0.269279
0.310792
0.253145
0.194384
0.304739
0.361983
0.268067
0.301033
0.258164
0.360886
0.22799
0.246536
0.445394
0.284138
0.204286
0.406239
0.299561
0.220434
0.335824
0.279323
0.280897
0.2724
0.31657
0.280887
0.357509
0.225044
0.342777
0.2956
0.334722
0.351565
0.307899
0.357646
0.258163
0.279697
0.297659
0.295989
0.295636
0.318436
0.327474
0.378154
0.343277
0.395998
0.277986
0.35694
0.248365
0.296352
0.322447
0.35432
0.282836
0.32468
0.280159
0.283762
0.28103
0.343823
0.306337
0.316597
0.264039
0.37832
0.289908
0.345709
0.317851
0.294172
0.285911
0.285989
0.197755
0.241789
0.265929
0.249867
0.274507
0.299341
0.281669
0.351769
0.293158
0.306022
0.232504
0.282001
0.340182
0.348171
0.267062
0.342719
0.308667
0.171737
0.316733
0.305572
0.281768
0.30811
0.218277
0.350191
0.360931
0.320033
0.334327
0.296938
0.202556
0.293568
0.31681
0.352937
0.286905
0.29513
0.310528
0.247581
0.334533
0.34188
0.275787
0.25133
0.233549
0.368655
0.29539
0.341553
0.31981
0.310313
0.267939
0.301051
0.307954
0.305238
0.246813
0.336074
0.256416
0.20053
0.322142
0.302506
0.431132
0.231345
0.427512
0.260356
0.326671
0.335086
0.286978
0.357883
0.339634
0.339678
0.208561
0.208722
0.300303
0.385596
0.346669
0.29585
0.28129
0.277337
0.22257
0.349448
0.2537
0.291951
0.326407
0.365262
0.355017
0.244573
0.339256
0.343491
0.295534
0.356639
0.302532
0.361724
0.275775
0.300532
0.244749
0.246577
0.281744
0.275342
0.300907
0.204656
0.280969
0.27706
0.285687
0.299904
0.404493
0.301642
0.348555
0.333679
0.269144
0.273363
0.255911
0.297849
0.424361
0.295227
0.292098
0.332531
0.352609
0.372175
0.306186
0.334812
0.311239
0.278951
0.259194
0.261374
0.354186
0.253992
0.348696
0.262835
0.340938
0.345037
0.209832
0.225486
0.365174
0.266187
0.339615
0.312274
0.228925
0.321608
0.332703
0.285717
0.314987
0.314053
0.317131
0.238969
0.284991
0.34259
0.261454
0.35337
0.338446
0.277563
0.403527
0.328068
0.230514
0.266953
0.217012
0.32683
0.307385
0.355476
0.285225
0.267227
0.356367
0.284202
0.250487
0.24876
0.333007
0.355968
0.292634
0.263576
0.249852
0.313287
0.3257
0.17228
0.324419
0.324507
0.301258
0.277313
0.3629
0.325801
0.297448
0.35715
0.263836
0.271319
0.214729
0.330483
0.347799
0.286058
0.289925
0.316898
0.384076
0.384716
0.26701
0.29872
0.319133
0.313788
0.238545
0.326675
0.400724
0.290986
0.258044
0.340283
0.361906
0.265206
0.283473
0.31911
0.352732
0.319422
0.264025
0.320978
0.280297
0.278089
0.242736
0.304712
0.27132
0.359812
0.287222
0.35857
0.323247
0.38396
0.448653
0.343976
0.217538
0.290977
0.301619
0.277983
0.307795
0.248011
0.371047
0.334307
0.324691
0.34412
0.310423
0.372424
0.314428
0.338308
0.249743
0.298858
0.261749
0.319398
0.3134
0.280035
0.208395
0.224073
0.263964
0.241211
0.315963
0.294693
0.282674
0.232833
0.37522
0.289556
0.34302
0.330495
0.327871
0.25408
0.294087
0.324176
0.351995
0.326227
0.34622
0.363443
0.198353
0.297365
0.260026
0.236379
0.32076
0.385665
0.262647
0.31689
0.269123
0.292513
0.247102
0.345922
0.379106
0.288891
0.309639
0.286796
0.372816
0.396531
0.315183
0.288634
0.363099
0.312847
0.304549
0.35053
0.32413
0.317509
0.281576
0.163964
0.233963
0.302642
0.294528
0.347492
0.319265
0.248059
0.31544
0.286704
0.252607
0.272571
0.328932
0.351306
0.301458
0.249435
0.235313
0.289644
0.216067
0.26151
0.176705
0.342393
0.296137
0.28218
0.33745
0.27517
0.297273
0.306557
0.337506
0.270074
0.301672
0.346331
0.264412
0.302599
0.32708
0.285062
0.282255
0.317311
0.325684
0.338136
0.339006
0.287656
0.37733
0.3128
0.28215
0.361779
0.283072
0.351913
0.277922
0.286271
0.210838
0.279605
0.290731
0.269595
0.376855
0.249574
0.190475
0.333085
0.351247
0.314294
0.242819
0.319374
0.18712
0.338816
0.280238
0.229977
0.27374
0.303993
0.169719
0.324026
0.32994
0.357184
0.16941
0.361744
0.233171
0.323717
0.254164
0.311566
0.351195
0.209131
0.335693
0.250231
0.305722
0.329759
0.198324
0.24989
0.335119
0.20782
0.354909
0.247137
0.326423
0.333678
0.334275
0.32795
0.283633
0.269362
0.37122
0.297818
0.288625
0.395875
0.280493
0.396548
0.308738
0.257964
0.308736
0.356174
0.336225
0.25476
0.300965
0.244702
0.350261
0.23421
0.278805
0.329983
0.306545
0.316984
0.22527
0.382418
0.273413
0.239023
0.366513
0.270338
0.3442
0.329551
0.347707
0.302023
0.335085
0.374723
0.22213
0.275986
0.284074
0.418096
0.296534
0.294691
0.230357
0.346331
0.38159
0.270725