# vtk DataFile Version 2.0
Vtkoutput example
ASCII

DATASET UNSTRUCTURED_GRID
POINTS 36864 float
0.0201562 0.0201562 0.0
0.0204687 0.0201562 0.0
0.0207812 0.0201562 0.0
0.0210937 0.0201562 0.0
0.0214062 0.0201562 0.0
0.0217187 0.0201562 0.0
0.0220312 0.0201562 0.0
0.0223437 0.0201562 0.0
0.0226562 0.0201562 0.0
0.0229687 0.0201562 0.0
0.0232812 0.0201562 0.0
0.0235937 0.0201562 0.0
0.0239062 0.0201562 0.0
0.0242187 0.0201562 0.0
0.0245312 0.0201562 0.0
0.0248437 0.0201562 0.0
0.0251562 0.0201562 0.0
0.0254687 0.0201562 0.0
0.0257812 0.0201562 0.0
0.0260937 0.0201562 0.0
0.0264062 0.0201562 0.0
0.0267187 0.0201562 0.0
0.0270312 0.0201562 0.0
0.0273438 0.0201562 0.0
0.0276562 0.0201562 0.0
0.0279687 0.0201562 0.0
0.0282813 0.0201562 0.0
0.0285937 0.0201562 0.0
0.0289062 0.0201562 0.0
0.0292187 0.0201562 0.0
0.0295312 0.0201562 0.0
0.0298437 0.0201562 0.0
0.0301563 0.0201562 0.0
0.0304687 0.0201562 0.0
0.0307812 0.0201562 0.0
0.0310937 0.0201562 0.0
0.0314062 0.0201562 0.0
0.0317188 0.0201562 0.0
0.0320312 0.0201562 0.0
0.0323437 0.0201562 0.0
0.0326562 0.0201562 0.0
0.0329688 0.0201562 0.0
0.0332812 0.0201562 0.0
0.0335937 0.0201562 0.0
0.0339062 0.0201562 0.0
0.0342187 0.0201562 0.0
0.0345312 0.0201562 0.0
0.0348437 0.0201562 0.0
0.0351562 0.0201562 0.0
0.0354688 0.0201562 0.0
0.0357813 0.0201562 0.0
0.0360938 0.0201562 0.0
0.0364063 0.0201562 0.0
0.0367188 0.0201562 0.0
0.0370313 0.0201562 0.0
0.0373438 0.0201562 0.0
0.0376563 0.0201562 0.0
0.0379687 0.0201562 0.0
0.0382812 0.0201562 0.0
0.0385938 0.0201562 0.0
0.0389062 0.0201562 0.0
0.0392187 0.0201562 0.0
0.0395313 0.0201562 0.0
0.0398437 0.0201562 0.0
0.0401563 0.0201562 0.0
0.0404687 0.0201562 0.0
0.0407812 0.0201562 0.0
0.0410937 0.0201562 0.0
0.0414062 0.0201562 0.0
0.0417187 0.0201562 0.0
0.0420312 0.0201562 0.0
0.0423437 0.0201562 0.0
0.0426562 0.0201562 0.0
0.0429688 0.0201562 0.0
0.0432813 0.0201562 0.0
0.0435938 0.0201562 0.0
0.0439063 0.0201562 0.0
0.0442188 0.0201562 0.0
0.0445313 0.0201562 0.0
0.0448438 0.0201562 0.0
0.0451562 0.0201562 0.0
0.0454688 0.0201562 0.0
0.0457813 0.0201562 0.0
0.0460938 0.0201562 0.0
0.0464062 0.0201562 0.0
0.0467188 0.0201562 0.0
0.0470312 0.0201562 0.0
0.0473438 0.0201562 0.0
0.0476563 0.0201562 0.0
0.0479687 0.0201562 0.0
0.0482813 0.0201562 0.0
0.0485938 0.0201562 0.0
0.0489062 0.0201562 0.0
0.0492188 0.0201562 0.0
0.0495313 0.0201562 0.0
0.0498437 0.0201562 0.0
0.0501562 0.0201562 0.0
0.0504688 0.0201562 0.0
0.0507812 0.0201562 0.0
0.0510938 0.0201562 0.0
0.0514063 0.0201562 0.0
0.0517187 0.0201562 0.0
0.0520313 0.0201562 0.0
0.0523438 0.0201562 0.0
0.0526563 0.0201562 0.0
0.0529687 0.0201562 0.0
0.0532813 0.0201562 0.0
0.0535938 0.0201562 0.0
0.0539063 0.0201562 0.0
0.0542187 0.0201562 0.0
0.0545313 0.0201562 0.0
0.0548438 0.0201562 0.0
0.0551563 0.0201562 0.0
0.0554688 0.0201562 0.0
0.0557812 0.0201562 0.0
0.0560937 0.0201562 0.0
0.0564062 0.0201562 0.0
0.0567188 0.0201562 0.0
0.0570313 0.0201562 0.0
0.0573438 0.0201562 0.0
0.0576562 0.0201562 0.0
0.0579687 0.0201562 0.0
0.0582813 0.0201562 0.0
0.0585938 0.0201562 0.0
0.0589063 0.0201562 0.0
0.0592188 0.0201562 0.0
0.0595313 0.0201562 0.0
0.0598438 0.0201562 0.0
0.0601563 0.0201562 0.0
0.0604688 0.0201562 0.0
0.0607813 0.0201562 0.0
0.0610938 0.0201562 0.0
0.0614062 0.0201562 0.0
0.0617188 0.0201562 0.0
0.0620313 0.0201562 0.0
0.0623438 0.0201562 0.0
0.0626562 0.0201562 0.0
0.0629688 0.0201562 0.0
0.0632813 0.0201562 0.0
0.0635938 0.0201562 0.0
0.0639062 0.0201562 0.0
0.0642187 0.0201562 0.0
0.0645313 0.0201562 0.0
0.0648438 0.0201562 0.0
0.0651562 0.0201562 0.0
0.0654688 0.0201562 0.0
0.0657812 0.0201562 0.0
0.0660937 0.0201562 0.0
0.0664062 0.0201562 0.0
0.0667188 0.0201562 0.0
0.0670313 0.0201562 0.0
0.0673438 0.0201562 0.0
0.0676563 0.0201562 0.0
0.0679688 0.0201562 0.0
0.0682813 0.0201562 0.0
0.0685938 0.0201562 0.0
0.0689063 0.0201562 0.0
0.0692187 0.0201562 0.0
0.0695313 0.0201562 0.0
0.0698438 0.0201562 0.0
0.0701563 0.0201562 0.0
0.0704687 0.0201562 0.0
0.0707813 0.0201562 0.0
0.0710938 0.0201562 0.0
0.0714063 0.0201562 0.0
0.0717187 0.0201562 0.0
0.0720313 0.0201562 0.0
0.0723437 0.0201562 0.0
0.0726563 0.0201562 0.0
0.0729687 0.0201562 0.0
0.0732813 0.0201562 0.0
0.0735938 0.0201562 0.0
0.0739063 0.0201562 0.0
0.0742188 0.0201562 0.0
0.0745313 0.0201562 0.0
0.0748438 0.0201562 0.0
0.0751563 0.0201562 0.0
0.0754688 0.0201562 0.0
0.0757812 0.0201562 0.0
0.0760938 0.0201562 0.0
0.0764063 0.0201562 0.0
0.0767187 0.0201562 0.0
0.0770313 0.0201562 0.0
0.0773438 0.0201562 0.0
0.0776562 0.0201562 0.0
0.0779688 0.0201562 0.0
0.0782813 0.0201562 0.0
0.0785938 0.0201562 0.0
0.0789063 0.0201562 0.0
0.0792188 0.0201562 0.0
0.0795312 0.0201562 0.0
0.0798438 0.0201562 0.0
0.0201562 0.0204687 0.0
0.0204687 0.0204687 0.0
0.0207812 0.0204687 0.0
0.0210937 0.0204687 0.0
0.0214062 0.0204687 0.0
0.0217187 0.0204687 0.0
0.0220312 0.0204687 0.0
0.0223437 0.0204687 0.0
0.0226562 0.0204687 0.0
0.0229687 0.0204687 0.0
0.0232812 0.0204687 0.0
0.0235937 0.0204687 0.0
0.0239062 0.0204687 0.0
0.0242187 0.0204687 0.0
0.0245312 0.0204687 0.0
0.0248437 0.0204687 0.0
0.0251562 0.0204687 0.0
0.0254687 0.0204687 0.0
0.0257812 0.0204687 0.0
0.0260937 0.0204687 0.0
0.0264062 0.0204687 0.0
0.0267187 0.0204687 0.0
0.0270312 0.0204687 0.0
0.0273438 0.0204687 0.0
0.0276562 0.0204687 0.0
0.0279687 0.0204687 0.0
0.0282813 0.0204687 0.0
0.0285937 0.0204687 0.0
0.0289062 0.0204687 0.0
0.0292187 0.0204687 0.0
0.0295312 0.0204687 0.0
0.0298437 0.0204687 0.0
0.0301563 0.0204687 0.0
0.0304687 0.0204687 0.0
0.0307812 0.0204687 0.0
0.0310937 0.0204687 0.0
0.0314062 0.0204687 0.0
0.0317188 0.0204687 0.0
0.0320312 0.0204687 0.0
0.0323437 0.0204687 0.0
0.0326562 0.0204687 0.0
0.0329688 0.0204687 0.0
0.0332812 0.0204687 0.0
0.0335937 0.0204687 0.0
0.0339062 0.0204687 0.0
0.0342187 0.0204687 0.0
0.0345312 0.0204687 0.0
0.0348437 0.0204687 0.0
0.0351562 0.0204687 0.0
0.0354688 0.0204687 0.0
0.0357813 0.0204687 0.0
0.0360938 0.0204687 0.0
0.0364063 0.0204687 0.0
0.0367188 0.0204687 0.0
0.0370313 0.0204687 0.0
0.0373438 0.0204687 0.0
0.0376563 0.0204687 0.0
0.0379687 0.0204687 0.0
0.0382812 0.0204687 0.0
0.0385938 0.0204687 0.0
0.0389062 0.0204687 0.0
0.0392187 0.0204687 0.0
0.0395313 0.0204687 0.0
0.0398437 0.0204687 0.0
0.0401563 0.0204687 0.0
0.0404687 0.0204687 0.0
0.0407812 0.0204687 0.0
0.0410937 0.0204687 0.0
0.0414062 0.0204687 0.0
0.0417187 0.0204687 0.0
0.0420312 0.0204687 0.0
0.0423437 0.0204687 0.0
0.0426562 0.0204687 0.0
0.0429688 0.0204687 0.0
0.0432813 0.0204687 0.0
0.0435938 0.0204687 0.0
0.0439063 0.0204687 0.0
0.0442188 0.0204687 0.0
0.0445313 0.0204687 0.0
0.0448438 0.0204687 0.0
0.0451562 0.0204687 0.0
0.0454688 0.0204687 0.0
0.0457813 0.0204687 0.0
0.0460938 0.0204687 0.0
0.0464062 0.0204687 0.0
0.0467188 0.0204687 0.0
0.0470312 0.0204687 0.0
0.0473438 0.0204687 0.0
0.0476563 0.0204687 0.0
0.0479687 0.0204687 0.0
0.0482813 0.0204687 0.0
0.0485938 0.0204687 0.0
0.0489062 0.0204687 0.0
0.0492188 0.0204687 0.0
0.0495313 0.0204687 0.0
0.0498437 0.0204687 0.0
0.0501562 0.0204687 0.0
0.0504688 0.0204687 0.0
0.0507812 0.0204687 0.0
0.0510938 0.0204687 0.0
0.0514063 0.0204687 0.0
0.0517187 0.0204687 0.0
0.0520313 0.0204687 0.0
0.0523438 0.0204687 0.0
0.0526563 0.0204687 0.0
0.0529687 0.0204687 0.0
0.0532813 0.0204687 0.0
0.0535938 0.0204687 0.0
0.0539063 0.0204687 0.0
0.0542187 0.0204687 0.0
0.0545313 0.0204687 0.0
0.0548438 0.0204687 0.0
0.0551563 0.0204687 0.0
0.0554688 0.0204687 0.0
0.0557812 0.0204687 0.0
0.0560937 0.0204687 0.0
0.0564062 0.0204687 0.0
0.0567188 0.0204687 0.0
0.0570313 0.0204687 0.0
0.0573438 0.0204687 0.0
0.0576562 0.0204687 0.0
0.0579687 0.0204687 0.0
0.0582813 0.0204687 0.0
0.0585938 0.0204687 0.0
0.0589063 0.0204687 0.0
0.0592188 0.0204687 0.0
0.0595313 0.0204687 0.0
0.0598438 0.0204687 0.0
0.0601563 0.0204687 0.0
0.0604688 0.0204687 0.0
0.0607813 0.0204687 0.0
0.0610938 0.0204687 0.0
0.0614062 0.0204687 0.0
0.0617188 0.0204687 0.0
0.0620313 0.0204687 0.0
0.0623438 0.0204687 0.0
0.0626562 0.0204687 0.0
0.0629688 0.0204687 0.0
0.0632813 0.0204687 0.0
0.0635938 0.0204687 0.0
0.0639062 0.0204687 0.0
0.0642187 0.0204687 0.0
0.0645313 0.0204687 0.0
0.0648438 0.0204687 0.0
0.0651562 0.0204687 0.0
0.0654688 0.0204687 0.0
0.0657812 0.0204687 0.0
0.0660937 0.0204687 0.0
0.0664062 0.0204687 0.0
0.0667188 0.0204687 0.0
0.0670313 0.0204687 0.0
0.0673438 0.0204687 0.0
0.0676563 0.0204687 0.0
0.0679688 0.0204687 0.0
0.0682813 0.0204687 0.0
0.0685938 0.0204687 0.0
0.0689063 0.0204687 0.0
0.0692187 0.0204687 0.0
0.0695313 0.0204687 0.0
0.0698438 0.0204687 0.0
0.0701563 0.0204687 0.0
0.0704687 0.0204687 0.0
0.0707813 0.0204687 0.0
0.0710938 0.0204687 0.0
0.0714063 0.0204687 0.0
0.0717187 0.0204687 0.0
0.0720313 0.0204687 0.0
0.0723437 0.0204687 0.0
0.0726563 0.0204687 0.0
0.0729687 0.0204687 0.0
0.0732813 0.0204687 0.0
0.0735938 0.0204687 0.0
0.0739063 0.0204687 0.0
0.0742188 0.0204687 0.0
0.0745313 0.0204687 0.0
0.0748438 0.0204687 0.0
0.0751563 0.0204687 0.0
0.0754688 0.0204687 0.0
0.0757812 0.0204687 0.0
0.0760938 0.0204687 0.0
0.0764063 0.0204687 0.0
0.0767187 0.0204687 0.0
0.0770313 0.0204687 0.0
0.0773438 0.0204687 0.0
0.0776562 0.0204687 0.0
0.0779688 0.0204687 0.0
0.0782813 0.0204687 0.0
0.0785938 0.0204687 0.0
0.0789063 0.0204687 0.0
0.0792188 0.0204687 0.0
0.0795312 0.0204687 0.0
0.0798438 0.0204687 0.0
0.0201562 0.0207812 0.0
0.0204687 0.0207812 0.0
0.0207812 0.0207812 0.0
0.0210937 0.0207812 0.0
0.0214062 0.0207812 0.0
0.0217187 0.0207812 0.0
0.0220312 0.0207812 0.0
0.0223437 0.0207812 0.0
0.0226562 0.0207812 0.0
0.0229687 0.0207812 0.0
0.0232812 0.0207812 0.0
0.0235937 0.0207812 0.0
0.0239062 0.0207812 0.0
0.0242187 0.0207812 0.0
0.0245312 0.0207812 0.0
0.0248437 0.0207812 0.0
0.0251562 0.0207812 0.0
0.0254687 0.0207812 0.0
0.0257812 0.0207812 0.0
0.0260937 0.0207812 0.0
0.0264062 0.0207812 0.0
0.0267187 0.0207812 0.0
0.0270312 0.0207812 0.0
0.0273438 0.0207812 0.0
0.0276562 0.0207812 0.0
0.0279687 0.0207812 0.0
0.0282813 0.0207812 0.0
0.0285937 0.0207812 0.0
[...]
POINT_DATA 36864
SCALARS Intensity float 1
LOOKUP_TABLE default
0.233269
0.318517
0.325267
0.302967
0.317171
0.240485
0.488401
0.412734
0.248273
0.403425
0.339861
0.163696
0.245387
0.347673
0.290883
0.40461
0.259399
0.388602
0.329204
0.162864
0.500278
0.251233
0.272789
0.139901
0.296864
0.422826
0.35096
0.319158
0.497826
0.427818
0.209373
0.307347
0.298228
0.462187
0.264961
0.307878
0.352693
0.136779
0.300059
0.359957
0.244568
0.248023
0.344581
0.107903
0.165759
0.333375
0.417253
0.141061
0.288719
0.217596
0.271728
0.17243
0.314571
0.212077
0.0344962
0.248637
0.235231
0.38467
0.16215
0.322996
0.371448
0.304625
0.305763
0.360629
0.345944
0.290078
0.314344
0.373508
0.400838
0.362206
0.277494
0.392511
0.290183
0.44921
0.127317
0.292945
0.211087
0.347644
0.477806
0.364752
0.403908
0.545718
0.304128
0.116215
0.277541
0.33335
0.159658
0.336231
0.49189
0.206408
0.388303
0.41927
0.375061
0.370465
0.181335
0.360456
0.358705
0.278154
0.27985
0.158776
0.348514
0.457102
0.303182
0.418906
0.297416
0.48218
0.106083
0.119748
0.218951
0.213316
0.265075
0.328563
0.111717
0.243405
0.283107
0.336019
0.294681
0.283381
0.20981
0.396277
0.354436
0.246556
0.318695
0.472702
0.251586
0.399413
0.291738
0.176019
0.388894
0.229375
0.404501
0.382407
0.341593
0.487245
0.273896
0.325236
0.537739
0.386348
0.286792
0.290313
0.373035
0.377641
0.3118
0.269412
0.275575
0.315121
0.282557
0.391929
0.444927
0.122224
0.447268
0.334191
0.229899
0.295778
0.469591
0.376181
0.201947
0.442421
0.262211
0.262853
0.186371
0.320675
0.301253
0.125309
0.0603279
0.212468
0.232602
0.210559
0.31357
0.303032
0.119416
0.143706
0.386172
0.292628
0.375414
0.339767
0.406952
0.373783
0.282939
0.357434
0.363788
0.173951
0.228144
0.436953
0.251141
0.344244
0.354605
0.24357
0.225597
0.332633
0.290965
0.212929
0.395337
0.13802
0.452327
0.283785
0.264891
0.375766
0.29776
0.230655
0.236048
0.307806
0.214326
0.281816
0.334332
0.508523
0.270928
0.326179
0.416259
0.248641
0.163991
0.194716
0.338797
0.347338
0.350039
0.393585
0.417627
0.298695
0.399518
0.242714
0.153385
0.265003
0.203537
0.30389
0.408737
0.531123
0.295492
0.348267
0.176997
0.342392
0.324779
0.408393
0.279552
0.453447
0.262401
0.337629
0.30239
0.30354
0.133493
0.431152
0.29825
0.246825
0.205232
0.239962
0.43121
0.155092
0.460575
0.221417
0.159829
0.219877
0.241199
0.170599
0.232451
0.476592
0.361699
0.276209
0.43281
0.139257
0.408297
0.28954
0.135846
0.188038
0.444641
0.444185
0.423747
0.358892
0.321885
0.168982
0.179905
0.282704
0.179621
0.24164
0.198658
0.281419
0.198433
0.449141
0.356488
0.3207
0.351986
0.340224
0.145133
0.214366
0.338779
0.165868
0.374994
0.284274
0.334444
0.317486
0.258428
0.468129
0.41259
0.619854
0.242163
0.387731
0.243615
0.479275
0.247791
0.247042
0.353969
0.528979
0.265376
0.253182
0.460457
0.284084
0.356973
0.356162
0.264823
0.201197
0.0916279
0.237664
0.161822
0.408379
0.471884
0.324152
0.197056
0.243622
0.0755406
0.226224
0.202578
0.316595
0.315229
0.314724
0.336053
0.172096
0.284649
0.254541
0.231873
0.172711
0.347353
0.068499
0.219868
0.447429
0.10044
0.267845
0.272941
0.382591
0.466319
0.311661
0.397429
0.318055
0.277045
0.285412
0.268286
0.384441
0.0756724
0.282553
0.377493
0.253252
0.369223
0.270796
0.463402
0.312048
0.42449
0.340476
0.294681
0.356434
0.278787
0.396897
0.258463
0.123727
0.256497
0.234303
0.204448
0.170919
0.354562
0.288187
0.461036
0.1317
0.0342328
0.537993
0.146694
0.247569
0.230263
0.295548
0.376865
0.330757
0.345971
0.282056
0.278746
0.445864
0.29705
0.411583
0.389019
0.266759
0.231268
0.302442
0.310818
0.116241
0.26342
0.307364
0.266201
0.363461
0.188641
0.300042
0.149579
0.143582
0.253576
0.138278
0.214358
0.434862
0.402874
0.371211
0.224434
0.238583
0.473955
0.331404
0.319459
0.298169
0.301259
0.379944
0.226192
0.193432
0.259001
0.0824254
0.297069
0.297246
0.358844
0.230504
0.172272
0.275915
0.431471
0.374598
0.33881
0.331413
0.0786817
0.300476
0.224463
0.358725
0.295485
0.245664
0.37793
0.245661
0.288188
0.386809
0.191862
0.170044
0.371158
0.298896
0.21758
0.125187
0.109788
0.184678
0.204397
0.243126
0.210818
0.303777
0.230215
0.272368
0.250981
0.191824
0.268753
0.34883
0.353344
0.150334
0.468338
0.368056
0.30369
0.500233
0.366986
0.409838
0.325477
0.242354
0.364341
0.405937
0.433946
0.200359
0.408297
0.440354
0.401224
0.184141
0.177282
0.266643
0.408031
0.225983
0.281086
0.392959
0.164775
0.246623
0.425898
0.158921
0.0814284
-0.0305598
0.147081
0.266306
0.379363
0.397998
0.330559
0.236896
0.283913
0.334874
0.462655
0.390148
0.33944
0.324505
0.466097
0.297226
0.220189
0.364172
0.354638
0.053235
0.28862
0.294059
0.34035
0.524812
0.199579
0.332693
0.253613
0.392637
0.402813
0.290779
0.29806
0.275549
0.396567
0.368326
0.394644
0.205673
0.259458
0.0797436
0.269008
0.235264
0.431424
0.339082
0.155195
0.271583
0.347769
0.335848
0.161792
0.436938
0.291818
0.224568
0.189123
0.123718
0.19968
0.321902
0.249942
0.36228
0.377477
0.323254
0.316376
0.329499
0.337483
0.385107
0.340358
0.361456
0.302909
0.272306
0.392208
0.487816
0.244356
0.274426
0.434284
0.370601
0.156877
0.175021
0.289368
0.267294
0.234052
0.333273
0.22383
0.503141
0.404175
0.264124
0.285793
0.374045
0.216392
0.401029
0.209264
0.108577
0.450753
0.392848
0.225405
0.378844
0.328678
0.334538
0.394312
0.407222
0.283415
0.139998
0.257836
0.271932
0.2327
0.420105
0.488764
0.373226
0.410108
0.060842
0.23874
0.300348
0.347217
0.185175
0.344545
0.281163
0.359815
0.518139
0.412894
0.179907
0.244803
0.432272
0.415606
0.23092
0.183683
0.302773
0.145192
0.351531
0.136549
0.468319
0.342007
0.169224
0.219018
0.368262
0.29494
0.337714
0.356526
0.504453
0.129847
0.170671
0.190927
0.146277
0.340625
0.254439
0.251097
0.243293
0.265312
0.270943
0.135959
0.126675
0.27001
0.202029
0.284928
0.270136
0.520614
0.339425
0.427117
0.279239
0.236636
0.331145
0.433585
0.408949
-0.175902
0.57676
0.316727
0.262342
0.277564
0.412701
0.28731
0.215584
0.344533
0.202373
0.356223
0.184264
0.123583
0.384252
0.502046
0.388014
0.41864
0.540773
0.224606
0.227984
0.42317
0.277142
0.300642
0.256594
0.34629
0.347505
0.400674
0.345455
0.396356
0.360728
0.282907
0.339466
0.223212
0.449251
0.429051
0.386098
0.393661
0.246583
0.279754
0.224215
0.165771
0.253538
0.356182
0.250506
0.27176
0.383487
0.19789
0.372796
0.270752
0.360102
0.217641
0.396179
0.160877
0.438165
0.257584
0.261908
0.243876
0.204596
0.212821
0.329242
0.365969
0.566901
0.539676
0.286326
0.345866
0.195663
0.23034
0.417941
0.293141
0.138612
0.190175
0.364687
0.353106
0.17103
0.229333
0.152008
0.172144
0.17931
0.257849
0.291616
0.290403
0.335393
0.222452
0.268202
0.164526
0.32931
0.352497
0.264032
0.31366
0.313115
0.226962
0.223486
0.317409
0.225873
0.353427
0.244217
0.233457
0.235598
0.44271
0.399125
0.33471
0.27022
0.241637
0.27845
0.196689
0.314848
0.262053
0.262377
0.348203
0.367278
0.172574
0.376878
0.313184
0.198499
0.406278
0.403494
0.15463
0.190648
0.2426
0.341245
0.319017
0.0452994
0.371921
0.20438
0.270187
0.312806
0.387009
0.293814
0.251887
0.339682
0.470395
0.34719
0.398509
0.412878
0.275697
0.287921
0.369942
0.232767
0.239747
0.271168
0.317431
0.384473
0.289783
0.177522
0.338742
0.230785
0.422349
0.311385
0.16887
0.261505
0.321485
0.240007
0.246845
0.272707
0.530971
0.397114
0.517988
0.42125
0.320004
0.283536
0.157109
0.283689
0.217367
0.336225
0.20789
0.141022
0.359673
0.316499
0.262843
0.346265
0.43117
0.250315
0.382787
0.175038
0.150364
0.378922
0.139848
0.202226
0.187233
0.348505
0.422168
0.396464
0.320013
0.323979
0.225981
0.231276
0.449065
0.0637247
0.220257
0.265348
0.198276
0.297099
0.150625
0.375989
0.304247
0.602166
0.38279
0.108531
0.430266
0.337417
0.165636
0.29058
0.322366
0.417223
0.203926
0.242667
0.40477
0.385968
0.312189
0.453422
0.383012
0.453506
0.394533
0.193222
0.393413
0.510791
0.348447
0.197149
0.325431
0.276202
0.349898
0.153705
0.197895
0.39804
0.337022
0.276022
0.290029
0.217418
0.378264
0.247089
0.1953
0.174342
0.0740647
0.31868
0.359702
0.306676
0.34625
0.374285
0.423068
0.353757
0.385494
0.262243
0.505651
0.266341
0.382162
0.0215055
0.391259
0.301156
0.413861
0.204792
0.138689
0.321585
0.289958
0.191322
0.100269
0.125983
0.0935016
0.331343
0.273295
0.227991
0.372186
0.238495
0.343756
0.405552
0.383852
0.299808
0.309173
0.0688476
0.307136
0.438977
0.293323
0.309928
0.386198
0.209843
0.273948
0.36291
0.233487
0.29792
0.155206
0.354399
0.438989
0.252561
0.177922
0.254228
0.335686
0.277405
0.148529
0.305054
0.232692
0.296715
0.334103
0.365584
0.267737
0.165069
0.434816
0.280789
0.46814
0.273208
0.47096
0.199256
0.151511
0.305115
0.22275
0.129833
0.301773
0.347354
0.282691
0.318411
0.282134
0.447947
0.352123
0.367684
0.509531
0.278736
0.290009
0.239
0.319223
0.328177
0.387438
0.351921
0.330996
0.393907
0.239254
0.32078
0.20343
0.251975
0.393515
0.255481
0.185051
0.260883
0.411849
0.377214
0.3274
0.300059
0.263233
0.424834
0.227582
0.188185
0.307562
0.14861
0.311574
0.294761
0.28301
0.304667
0.219161
0.342672
0.138293
0.178057
0.372785
0.255518
0.353422
0.204283
0.385062
0.168153
0.441591
0.432191
0.382132
0.307576
0.10715
0.195001
0.183194
0.393287
0.219444
0.333706
0.222412
0.308216
0.0904972
0.414471
0.322745
0.35126
0.311937
0.319435
0.465959
0.2278
0.498595
0.206211
0.286631
0.289298
0.268771
0.467848
0.318894
0.172559
0.32853
0.400302
0.315419
0.264192
0.222467
0.515869
0.256018
0.255587
0.392791
0.207728
0.310107
0.411238
0.11892
0.427287
0.469477
0.588447
0.299325
0.20566
0.462868
0.235519
0.373466
0.385265
0.0360444
0.232957
0.362683
0.211575
0.309554
0.342237
0.262692
0.340152
0.525345
0.226583
0.252793
0.268927
0.323475
0.428824
0.476123
0.274595
0.352081
0.368615
0.518983
0.181021
0.0262193
0.283887
0.32328
0.396104
0.301806
0.268235
0.295589
0.288906
0.331571
0.485144
0.314895
0.343023
0.465671
0.295194
0.188529
0.406913
0.241141
0.425531
0.231168
0.160957
0.292263
0.275508
0.275642
0.31459
0.18955
0.365754
0.21688
0.297015
0.431652
0.269996
0.38123
0.372088
0.144011
0.254802
0.350255
0.32774
0.316046
0.267278
0.27158
0.385541
0.280284
0.363741
0.273982
0.311765
0.177879
0.141114
0.426988
0.193344
0.340633
0.279274
0.182324
0.230941
0.334303
0.168283
0.379733
0.39215
0.302727
0.500258
0.195173
0.325077
0.245078
0.242869
0.237029
0.402641
0.282367
0.40916
0.235214
0.167003
0.067443
0.388274
0.360424
0.406875
0.203959
0.260667
0.197919
0.325061
0.155907
0.340326
0.221024
0.502396
0.22727
0.379215
0.251914
0.405604
0.188451
0.35173
0.300631
0.253432
0.262563
0.325506
0.419032
0.324166
0.221116
0.333723
0.298083
0.278588
0.298474
0.310657
0.420349
0.310042
0.334143
0.170073
0.204396
0.328166
0.485263
0.367505
0.243008
0.257863
0.367846
0.13203
0.0944032
0.338116
0.432596
0.258761
0.347849
0.216514
0.22786
0.0943436
0.434459
0.166814
0.276352
0.245094
0.23938
0.368673
0.287064
0.110286
0.327092
0.147458
0.198867
0.272702
0.28676
0.323714
0.393243
0.235276
0.573388
0.223014
0.362018
0.352059
0.2331
0.441822
0.263785
0.227918
0.200741
0.301317
0.312614
0.296945
0.436936
0.295333
0.214115
0.375835
0.333257
0.323153
0.292233
0.351086
0.285208
0.295997
0.34224
0.337768
0.335592
0.198481
0.305434
0.307825
0.261896
0.398757
0.277777
0.375854
0.365893
0.38163
0.483048
0.262476
0.367589
0.233252
0.407723
0.272892
0.363463
0.291283
0.280365
0.258466
0.395833
0.355391
0.32617
0.356937
0.273173
0.319557
0.148188
0.505128
0.43691
0.40455
0.522297
0.330604
0.334318
0.270008
0.185772
0.20159
0.0829308
0.198767
0.302798
0.31911
0.229421
0.4006
0.178623
0.190955
0.315593
0.156833
0.279161
0.368347
0.18729
0.451465
0.117049
0.3355
0.186985
0.398152
0.22919
0.376585
0.210591
0.275734
0.404043
0.240953
0.353277
0.334506
0.343779
0.280433
0.461979
0.333401
0.230514
0.15698
0.290668
0.45579
0.28881
0.336161
0.366037
0.350051
0.238879
0.497553
0.258571
0.251134
0.251074
0.241464
0.472867
0.181714
0.332092
0.199793
0.439942
0.370777
0.287878
0.226173
0.348024
0.500791
0.542728
0.357162
0.337876
0.41891
0.218902
0.363828
0.437577
0.21911
0.470938
0.276297
0.224176
0.161836
0.258586
0.377887
0.239637
0.389816
0.402271
0.501808
0.385251
-0.0252913
0.333636
0.390019
0.215183
0.0598138
0.374678
0.27584
0.389654
0.134331
0.386974
0.102435
0.403356
0.154618
0.278769
0.143636
0.416946
0.255677
0.330779
0.37122
0.389144
0.212502
0.167383
0.302869
0.29997
0.113035
0.0772277
0.544203
0.508064
0.201803
0.292576
0.290981
0.210488
0.305371
0.419402
0.464883
0.363355
0.234539
0.326039
0.350072
0.189716
0.227745
0.308221
0.193114
0.357683
0.238705
0.406345
0.175625
0.349154
0.0922412
0.238053
0.305633
0.251208
0.391742
0.392181
0.479894
0.0770495
0.284453
0.310024
0.277196
0.276858
0.312869
0.39366
0.387373
0.329325
0.309794
0.323071
0.448151
0.111704
0.323288
0.294021
0.260967
0.340633
0.382719
0.109824
0.180768
0.222555
0.153217
0.370697
0.381339
0.136104
0.291786
0.235849
0.301862
0.256754
0.347379
0.434513
0.324465
0.28393
0.278553
0.0590258
0.196025
0.2661
0.211754
0.265055
0.164454
0.251807
0.333923
0.313726
0.309451
0.257147
0.360589
0.31815
0.228585
0.495893
0.380383
0.423744
0.138076
0.311017
0.295811
0.335475
0.356404
0.389401
0.313808
0.2216
0.298568
0.3256
0.339671
0.159208
0.210622
0.283936
0.192681
0.575402
0.192228
0.208094
0.4468
0.203154
0.437635
0.20326
0.458915
0.249065
0.266627
0.111002
0.219629
0.35306
0.352498
0.191794
0.296286
0.481368
0.0897312
0.194524
0.390412
0.244841
0.30624
0.32231
0.328589
0.362132
0.432048
0.3623
0.381684
0.247449
0.467972
0.26372
0.00315619
0.0253851
0.356661
0.219486
0.235757
0.352426
0.394657
0.275427
0.239172
0.15902
0.42385
0.397671
0.145743
0.250928
0.155609
0.184411
0.238376
0.350297
0.319021
0.181464
0.0843026
0.265722
0.291166
0.186113
0.370174
0.268792
0.225973
0.237116
0.30122
0.260163
0.270978
0.182739
0.184964
0.273878
0.204787
0.282298
0.276248
0.444504
0.415942
0.296573
0.430581
0.372709
0.499533
0.145982
0.227284
0.501662
0.404992
0.228566
0.235546
0.278006
0.336768
0.316385
0.287507
0.196943
0.14926
0.371009
0.411094
0.279273
0.255488
0.178691
0.219365
0.340373
0.316624
0.330263
0.166865
0.383464
0.247114
0.171552
0.481204
0.102625
0.422491
0.23472
0.288448
0.461084
0.271997
0.390794
0.381673
0.352462
0.203688
0.141694
0.26887
0.318386
0.254922
0.343477
0.336736
0.185371
0.275272
0.1995
0.112554
0.359097
0.184001
0.18566
0.328533
0.309638
0.258104
0.355914
0.255451
0.243976
0.237419
0.272136
0.244781
0.491138
0.348085
0.287978
0.228897
0.18079
0.304575
0.398656
0.326962
0.299584
0.31062
0.299243
0.247746
0.324678
0.368949
0.271204
0.362248
0.210797
0.535454
0.217472
0.289806
0.224466
0.181785
0.240466
0.54328
0.294572
0.348125
0.138565
0.174001
0.276977
0.303939
0.433122
0.219181
0.372318
0.207892
0.204294
0.216582
0.0948401
0.351633
0.243291
0.181268
0.289322
0.302705
0.460015
0.255997
0.170775
0.192348
0.115851
0.32179
0.241154
0.292103
0.2206
0.346356
0.166168
0.211221
0.490825
0.232613
0.314202
0.543437
0.364213
0.409483
0.323589
0.197472
0.315334
0.418178
0.357708
0.24758
0.19218
0.374074
0.201928
0.246217
0.447462
0.316368
0.30294
0.330925
0.25097
0.257269
0.338448
0.297426
0.402641
0.107487
0.418564
0.237035
0.166843
0.294563
0.354233
0.450178
0.129187
0.370519
0.280584
0.365097
0.378725
0.258863
0.203549
0.311095
0.187056
0.43741
0.108139
0.297415
0.187941
0.253096
0.26027
0.339184
0.314186
0.365059
0.18376
0.534605
0.507846
0.300956
0.115544
0.351163
0.423503
0.418431
0.292885
0.439975
0.26442
0.212425
0.353907
0.146135
0.274782
0.307938
0.231983
0.286579
0.284108
0.263571
0.242203
0.482565
0.462125
0.191815
0.278751
0.445782
0.227887
0.15527
0.176611
0.350575
0.370535
0.401888
0.350965
0.177997
0.300769
0.264641
0.354571
0.275217
0.225372
0.16591
0.480825
0.300753
0.272827
0.23267
0.232959
0.290844
0.621383
0.34965
0.270533
0.422417
0.233535
0.240535
0.214848
0.294917
0.152557
0.198234
0.187052
0.0871724
0.50345
0.279151
0.368836
0.272786
0.331363
0.310582
0.217289
0.256563
0.30728
0.555727
0.416352
0.273518
0.325456
0.300565
0.276871
0.408982
0.238559
0.321584
0.206291
0.0887674
0.309477
0.423966
0.236134
0.302065
0.216328
0.421772
0.15598
0.193073
0.590788
0.268276
0.108573
0.512479
0.299122
0.140867
0.371648
0.258645
0.261794
0.2448
0.333141
0.261775
0.415018
0.150088
0.385554
0.2912
0.369443
0.40313
0.315798
0.415293
0.216325
0.259394
0.295319
0.291978
0.291272
0.336872
0.354948
0.456308
0.386554
0.491995
0.255973
0.413879
0.19673
0.292703
0.344893
0.408639
0.265672
0.349361
0.260319
0.267525
0.262061
0.387647
0.312674
0.333195
0.228078
0.45664
0.279815
0.391419
0.335702
0.288345
0.271822
0.271978
0.095511
0.183577
0.231857
0.199734
0.249015
0.298682
0.263339
0.403538
0.286315
0.312044
0.165009
0.264001
0.380364
0.396341
0.234125
0.385438
0.317333
0.0434738
0.333466
0.311143
0.263536
0.31622
0.136555
0.400383
0.421861
0.340066
0.368654
0.293876
0.105112
0.287136
0.33362
0.405874
0.273809
0.29026
0.321056
0.195162
0.369067
0.38376
0.251573
0.20266
0.167098
0.437309
0.290781
0.383107
0.339619
0.320626
0.235878
0.302101
0.315908
0.310476
0.193626
0.372148
0.212832
0.10106
0.344284
0.305013
0.562263
0.162689
0.555025
0.220711
0.353342
0.370171
0.273956
0.415767
0.379268
0.379356
0.117122
0.117445
0.300607
0.471192
0.393339
0.291699
0.26258
0.254674
0.14514
0.398897
0.2074
0.283902
0.352814
0.430524
0.410033
0.189147
0.378511
0.386982
0.291068
0.413279
0.305064
0.423448
0.25155
0.301065
0.189498
0.193154
0.263488
0.250684
0.301814
0.109311
0.261937
0.25412
0.271373
0.299807
0.508987
0.303284
0.39711
0.367359
0.238288
0.246726
0.211823
0.295698
0.548722
0.290454
0.284195
0.365063
0.405218
0.44435
0.312371
0.369624
0.322479
0.257903
0.218389
0.222748
0.408373
0.207985
0.397392
0.225669
0.381877
0.390075
0.119663
0.150972
0.430349
0.232374
0.37923
0.324548
0.157851
0.343215
0.365407
0.271434
0.329974
0.328106
0.334262
0.177938
0.269982
0.38518
0.222908
0.406739
0.376893
0.255126
0.507054
0.356135
0.161028
0.233907
0.134024
0.35366
0.314769
0.410952
0.270449
0.234454
0.412734
0.268404
0.200973
0.19752
0.366014
0.411936
0.285267
0.227151
0.199703
0.326574
0.351399
0.0445606
0.348838
0.349015
0.302516
0.254625
0.425799
0.351603
0.294895
0.4143
0.227672
0.242639
0.129459
0.360966
0.395598
0.272117
0.27985
0.333796
0.468152
0.469433
0.234019
0.297441
0.338267
0.327576
0.177089
0.353351
0.501449
0.281971
0.216088
0.380566
0.423813
0.230411
0.266947
0.33822
0.405463
0.338843
0.22805
0.341956
0.260595
0.256178
0.185473
0.309423
0.242639
0.419624
0.274444
0.41714
0.346494
0.46792
0.597307
0.387952
0.135077
0.281954
0.303238
0.255967
0.31559
0.196023
0.442093
0.368614
0.349383
0.38824
0.320845
0.444849
0.328855
0.376616
0.199486
0.297717
0.223499
0.338796
0.3268
0.26007
0.11679
0.148147
0.227927
0.182423
0.331926
0.289385
0.265347
0.165665
0.45044
0.279112
0.38604
0.360989
0.355742
0.20816
0.288174
0.348352
0.403991
0.352453
0.39244
0.426886
0.0967052
0.294731
0.220051
0.172759
0.34152
0.471329
0.225294
0.333781
0.238247
0.285026
0.194205
0.391844
0.458212
0.277783
0.319279
0.273593
0.445632
0.493062
0.330367
0.277267
0.426197
0.325695
0.309098
0.40106
0.348259
0.335019
0.263153
0.0279283
0.167926
0.305285
0.289055
0.394984
0.33853
0.196118
0.33088
0.273408
0.205214
0.245142
0.357864
0.402613
0.302915
0.19887
0.170626
0.279289
0.132134
0.22302
0.053411
0.384786
0.292274
0.26436
0.374899
0.250339
0.294547
0.313114
0.375011
0.240148
0.303344
0.392662
0.228825
0.305197
0.35416
0.270124
0.26451
0.334623
0.351368
0.376273
0.378012
0.275312
0.454661
0.325601
0.264301
0.423559
0.266144
0.403825
0.255844
0.272542
0.121676
0.25921
0.281461
0.23919
0.453709
0.199148
0.0809492
0.36617
0.402495
0.328589
0.185638
0.338748
0.0742391
0.377632
0.260475
0.159954
0.247481
0.307987
0.0394382
0.348051
0.35988
0.414369
0.0388194
0.423489
0.166341
0.347434
0.208328
0.323131
0.40239
0.118262
0.371385
0.200462
0.311444
0.359517
0.0966484
0.19978
0.370239
0.115639
0.409817
0.194274
0.352847
0.367357
0.36855
0.355901
0.267266
0.238723
0.44244
0.295635
0.277249
0.491751
0.260987
0.493096
0.317475
0.215929
0.317472
0.412348
0.372449
0.209521
0.30193
0.189405
0.400523
0.16842
0.25761
0.359965
0.31309
0.333969
0.15054
0.464836
0.246825
0.178046
0.433026
0.240675
0.3884
0.359102
0.395415
0.304046
0.37017
0.449446
0.144259
0.251972
0.268148
0.536193