# vtk DataFile Version 2.0
Vtkoutput example
ASCII

DATASET UNSTRUCTURED_GRID
POINTS 36864 float
0.0201562 0.0201562 0.0
0.0204687 0.0201562 0.0
0.0207812 0.0201562 0.0
0.0210937 0.0201562 0.0
0.0214062 0.0201562 0.0
0.0217187 0.0201562 0.0
0.0220312 0.0201562 0.0
0.0223437 0.0201562 0.0
0.0226562 0.0201562 0.0
0.0229687 0.0201562 0.0
0.0232812 0.0201562 0.0
0.0235937 0.0201562 0.0
0.0239062 0.0201562 0.0
0.0242187 0.0201562 0.0
0.0245312 0.0201562 0.0
0.0248437 0.0201562 0.0
0.0251562 0.0201562 0.0
0.0254687 0.0201562 0.0
0.0257812 0.0201562 0.0
0.0260937 0.0201562 0.0
0.0264062 0.0201562 0.0
0.0267187 0.0201562 0.0
0.0270312 0.0201562 0.0
0.0273438 0.0201562 0.0
0.0276562 0.0201562 0.0
0.0279687 0.0201562 0.0
0.0282813 0.0201562 0.0
0.0285937 0.0201562 0.0
0.0289062 0.0201562 0.0
0.0292187 0.0201562 0.0
0.0295312 0.0201562 0.0
0.0298437 0.0201562 0.0
0.0301563 0.0201562 0.0
0.0304687 0.0201562 0.0
0.0307812 0.0201562 0.0
0.0310937 0.0201562 0.0
0.0314062 0.0201562 0.0
0.0317188 0.0201562 0.0
0.0320312 0.0201562 0.0
0.0323437 0.0201562 0.0
0.0326562 0.0201562 0.0
0.0329688 0.0201562 0.0
0.0332812 0.0201562 0.0
0.0335937 0.0201562 0.0
0.0339062 0.0201562 0.0
0.0342187 0.0201562 0.0
0.0345312 0.0201562 0.0
0.0348437 0.0201562 0.0
0.0351562 0.0201562 0.0
0.0354688 0.0201562 0.0
0.0357813 0.0201562 0.0
0.0360938 0.0201562 0.0
0.0364063 0.0201562 0.0
0.0367188 0.0201562 0.0
0.0370313 0.0201562 0.0
0.0373438 0.0201562 0.0
0.0376563 0.0201562 0.0
0.0379687 0.0201562 0.0
0.0382812 0.0201562 0.0
0.0385938 0.0201562 0.0
0.0389062 0.0201562 0.0
0.0392187 0.0201562 0.0
0.0395313 0.0201562 0.0
0.0398437 0.0201562 0.0
0.0401563 0.0201562 0.0
0.0404687 0.0201562 0.0
0.0407812 0.0201562 0.0
0.0410937 0.0201562 0.0
0.0414062 0.0201562 0.0
0.0417187 0.0201562 0.0
0.0420312 0.0201562 0.0
0.0423437 0.0201562 0.0
0.0426562 0.0201562 0.0
0.0429688 0.0201562 0.0
0.0432813 0.0201562 0.0
0.0435938 0.0201562 0.0
0.0439063 0.0201562 0.0
0.0442188 0.0201562 0.0
0.0445313 0.0201562 0.0
0.0448438 0.0201562 0.0
0.0451562 0.0201562 0.0
0.0454688 0.0201562 0.0
0.0457813 0.0201562 0.0
0.0460938 0.0201562 0.0
0.0464062 0.0201562 0.0
0.0467188 0.0201562 0.0
0.0470312 0.0201562 0.0
0.0473438 0.0201562 0.0
0.0476563 0.0201562 0.0
0.0479687 0.0201562 0.0
0.0482813 0.0201562 0.0
0.0485938 0.0201562 0.0
0.0489062 0.0201562 0.0
0.0492188 0.0201562 0.0
0.0495313 0.0201562 0.0
0.0498437 0.0201562 0.0
0.0501562 0.0201562 0.0
0.0504688 0.0201562 0.0
0.0507812 0.0201562 0.0
0.0510938 0.0201562 0.0
0.0514063 0.0201562 0.0
0.0517187 0.0201562 0.0
0.0520313 0.0201562 0.0
0.0523438 0.0201562 0.0
0.0526563 0.0201562 0.0
0.0529687 0.0201562 0.0
0.0532813 0.0201562 0.0
0.0535938 0.0201562 0.0
0.0539063 0.0201562 0.0
0.0542187 0.0201562 0.0
0.0545313 0.0201562 0.0
0.0548438 0.0201562 0.0
0.0551563 0.0201562 0.0
0.0554688 0.0201562 0.0
0.0557812 0.0201562 0.0
0.0560937 0.0201562 0.0
0.0564062 0.0201562 0.0
0.0567188 0.0201562 0.0
0.0570313 0.0201562 0.0
0.0573438 0.0201562 0.0
0.0576562 0.0201562 0.0
0.0579687 0.0201562 0.0
0.0582813 0.0201562 0.0
0.0585938 0.0201562 0.0
0.0589063 0.0201562 0.0
0.0592188 0.0201562 0.0
0.0595313 0.0201562 0.0
0.0598438 0.0201562 0.0
0.0601563 0.0201562 0.0
0.0604688 0.0201562 0.0
0.0607813 0.0201562 0.0
0.0610938 0.0201562 0.0
0.0614062 0.0201562 0.0
0.0617188 0.0201562 0.0
0.0620313 0.0201562 0.0
0.0623438 0.0201562 0.0
0.0626562 0.0201562 0.0
0.0629688 0.0201562 0.0
0.0632813 0.0201562 0.0
0.0635938 0.0201562 0.0
0.0639062 0.0201562 0.0
0.0642187 0.0201562 0.0
0.0645313 0.0201562 0.0
0.0648438 0.0201562 0.0
0.0651562 0.0201562 0.0
0.0654688 0.0201562 0.0
0.0657812 0.0201562 0.0
0.0660937 0.0201562 0.0
0.0664062 0.0201562 0.0
0.0667188 0.0201562 0.0
0.0670313 0.0201562 0.0
0.0673438 0.0201562 0.0
0.0676563 0.0201562 0.0
0.0679688 0.0201562 0.0
0.0682813 0.0201562 0.0
0.0685938 0.0201562 0.0
0.0689063 0.0201562 0.0
0.0692187 0.0201562 0.0
0.0695313 0.0201562 0.0
0.0698438 0.0201562 0.0
0.0701563 0.0201562 0.0
0.0704687 0.0201562 0.0
0.0707813 0.0201562 0.0
0.0710938 0.0201562 0.0
0.0714063 0.0201562 0.0
0.0717187 0.0201562 0.0
0.0720313 0.0201562 0.0
0.0723437 0.0201562 0.0
0.0726563 0.0201562 0.0
0.0729687 0.0201562 0.0
0.0732813 0.0201562 0.0
0.0735938 0.0201562 0.0
0.0739063 0.0201562 0.0
0.0742188 0.0201562 0.0
0.0745313 0.0201562 0.0
0.0748438 0.0201562 0.0
0.0751563 0.0201562 0.0
0.0754688 0.0201562 0.0
0.0757812 0.0201562 0.0
0.0760938 0.0201562 0.0
0.0764063 0.0201562 0.0
0.0767187 0.0201562 0.0
0.0770313 0.0201562 0.0
0.0773438 0.0201562 0.0
0.0776562 0.0201562 0.0
0.0779688 0.0201562 0.0
0.0782813 0.0201562 0.0
0.0785938 0.0201562 0.0
0.0789063 0.0201562 0.0
0.0792188 0.0201562 0.0
0.0795312 0.0201562 0.0
0.0798438 0.0201562 0.0
0.0201562 0.0204687 0.0
0.0204687 0.0204687 0.0
0.0207812 0.0204687 0.0
0.0210937 0.0204687 0.0
0.0214062 0.0204687 0.0
0.0217187 0.0204687 0.0
0.0220312 0.0204687 0.0
0.0223437 0.0204687 0.0
0.0226562 0.0204687 0.0
0.0229687 0.0204687 0.0
0.0232812 0.0204687 0.0
0.0235937 0.0204687 0.0
0.0239062 0.0204687 0.0
0.0242187 0.0204687 0.0
0.0245312 0.0204687 0.0
0.0248437 0.0204687 0.0
0.0251562 0.0204687 0.0
0.0254687 0.0204687 0.0
0.0257812 0.0204687 0.0
0.0260937 0.0204687 0.0
0.0264062 0.0204687 0.0
0.0267187 0.0204687 0.0
0.0270312 0.0204687 0.0
0.0273438 0.0204687 0.0
0.0276562 0.0204687 0.0
0.0279687 0.0204687 0.0
0.0282813 0.0204687 0.0
0.0285937 0.0204687 0.0
0.0289062 0.0204687 0.0
0.0292187 0.0204687 0.0
0.0295312 0.0204687 0.0
0.0298437 0.0204687 0.0
0.0301563 0.0204687 0.0
0.0304687 0.0204687 0.0
0.0307812 0.0204687 0.0
0.0310937 0.0204687 0.0
0.0314062 0.0204687 0.0
0.0317188 0.0204687 0.0
0.0320312 0.0204687 0.0
0.0323437 0.0204687 0.0
0.0326562 0.0204687 0.0
0.0329688 0.0204687 0.0
0.0332812 0.0204687 0.0
0.0335937 0.0204687 0.0
0.0339062 0.0204687 0.0
0.0342187 0.0204687 0.0
0.0345312 0.0204687 0.0
0.0348437 0.0204687 0.0
0.0351562 0.0204687 0.0
0.0354688 0.0204687 0.0
0.0357813 0.0204687 0.0
0.0360938 0.0204687 0.0
0.0364063 0.0204687 0.0
0.0367188 0.0204687 0.0
0.0370313 0.0204687 0.0
0.0373438 0.0204687 0.0
0.0376563 0.0204687 0.0
0.0379687 0.0204687 0.0
0.0382812 0.0204687 0.0
0.0385938 0.0204687 0.0
0.0389062 0.0204687 0.0
0.0392187 0.0204687 0.0
0.0395313 0.0204687 0.0
0.0398437 0.0204687 0.0
0.0401563 0.0204687 0.0
0.0404687 0.0204687 0.0
0.0407812 0.0204687 0.0
0.0410937 0.0204687 0.0
0.0414062 0.0204687 0.0
0.0417187 0.0204687 0.0
0.0420312 0.0204687 0.0
0.0423437 0.0204687 0.0
0.0426562 0.0204687 0.0
0.0429688 0.0204687 0.0
0.0432813 0.0204687 0.0
0.0435938 0.0204687 0.0
0.0439063 0.0204687 0.0
0.0442188 0.0204687 0.0
0.0445313 0.0204687 0.0
0.0448438 0.0204687 0.0
0.0451562 0.0204687 0.0
0.0454688 0.0204687 0.0
0.0457813 0.0204687 0.0
0.0460938 0.0204687 0.0
0.0464062 0.0204687 0.0
0.0467188 0.0204687 0.0
0.0470312 0.0204687 0.0
0.0473438 0.0204687 0.0
0.0476563 0.0204687 0.0
0.0479687 0.0204687 0.0
0.0482813 0.0204687 0.0
0.0485938 0.0204687 0.0
0.0489062 0.0204687 0.0
0.0492188 0.0204687 0.0
0.0495313 0.0204687 0.0
0.0498437 0.0204687 0.0
0.0501562 0.0204687 0.0
0.0504688 0.0204687 0.0
0.0507812 0.0204687 0.0
0.0510938 0.0204687 0.0
0.0514063 0.0204687 0.0
0.0517187 0.0204687 0.0
0.0520313 0.0204687 0.0
0.0523438 0.0204687 0.0
0.0526563 0.0204687 0.0
0.0529687 0.0204687 0.0
0.0532813 0.0204687 0.0
0.0535938 0.0204687 0.0
0.0539063 0.0204687 0.0
0.0542187 0.0204687 0.0
0.0545313 0.0204687 0.0
0.0548438 0.0204687 0.0
0.0551563 0.0204687 0.0
0.0554688 0.0204687 0.0
0.0557812 0.0204687 0.0
0.0560937 0.0204687 0.0
0.0564062 0.0204687 0.0
0.0567188 0.0204687 0.0
0.0570313 0.0204687 0.0
0.0573438 0.0204687 0.0
0.0576562 0.0204687 0.0
0.0579687 0.0204687 0.0
0.0582813 0.0204687 0.0
0.0585938 0.0204687 0.0
0.0589063 0.0204687 0.0
0.0592188 0.0204687 0.0
0.0595313 0.0204687 0.0
0.0598438 0.0204687 0.0
0.0601563 0.0204687 0.0
0.0604688 0.0204687 0.0
0.0607813 0.0204687 0.0
0.0610938 0.0204687 0.0
0.0614062 0.0204687 0.0
0.0617188 0.0204687 0.0
0.0620313 0.0204687 0.0
0.0623438 0.0204687 0.0
0.0626562 0.0204687 0.0
0.0629688 0.0204687 0.0
0.0632813 0.0204687 0.0
0.0635938 0.0204687 0.0
0.0639062 0.0204687 0.0
0.0642187 0.0204687 0.0
0.0645313 0.0204687 0.0
0.0648438 0.0204687 0.0
0.0651562 0.0204687 0.0
0.0654688 0.0204687 0.0
0.0657812 0.0204687 0.0
0.0660937 0.0204687 0.0
0.0664062 0.0204687 0.0
0.0667188 0.0204687 0.0
0.0670313 0.0204687 0.0
0.0673438 0.0204687 0.0
0.0676563 0.0204687 0.0
0.0679688 0.0204687 0.0
0.0682813 0.0204687 0.0
0.0685938 0.0204687 0.0
0.0689063 0.0204687 0.0
0.0692187 0.0204687 0.0
0.0695313 0.0204687 0.0
0.0698438 0.0204687 0.0
0.0701563 0.0204687 0.0
0.0704687 0.0204687 0.0
0.0707813 0.0204687 0.0
0.0710938 0.0204687 0.0
0.0714063 0.0204687 0.0
0.0717187 0.0204687 0.0
0.0720313 0.0204687 0.0
0.0723437 0.0204687 0.0
0.0726563 0.0204687 0.0
0.0729687 0.0204687 0.0
0.0732813 0.0204687 0.0
0.0735938 0.0204687 0.0
0.0739063 0.0204687 0.0
0.0742188 0.0204687 0.0
0.0745313 0.0204687 0.0
0.0748438 0.0204687 0.0
0.0751563 0.0204687 0.0
0.0754688 0.0204687 0.0
0.0757812 0.0204687 0.0
0.0760938 0.0204687 0.0
0.0764063 0.0204687 0.0
0.0767187 0.0204687 0.0
0.0770313 0.0204687 0.0
0.0773438 0.0204687 0.0
0.0776562 0.0204687 0.0
0.0779688 0.0204687 0.0
0.0782813 0.0204687 0.0
0.0785938 0.0204687 0.0
0.0789063 0.0204687 0.0
0.0792188 0.0204687 0.0
0.0795312 0.0204687 0.0
0.0798438 0.0204687 0.0
0.0201562 0.0207812 0.0
0.0204687 0.0207812 0.0
0.0207812 0.0207812 0.0
0.0210937 0.0207812 0.0
0.0214062 0.0207812 0.0
0.0217187 0.0207812 0.0
0.0220312 0.0207812 0.0
0.0223437 0.0207812 0.0
0.0226562 0.0207812 0.0
0.0229687 0.0207812 0.0
0.0232812 0.0207812 0.0
0.0235937 0.0207812 0.0
0.0239062 0.0207812 0.0
0.0242187 0.0207812 0.0
0.0245312 0.0207812 0.0
0.0248437 0.0207812 0.0
0.0251562 0.0207812 0.0
0.0254687 0.0207812 0.0
0.0257812 0.0207812 0.0
0.0260937 0.0207812 0.0
0.0264062 0.0207812 0.0
0.0267187 0.0207812 0.0
0.0270312 0.0207812 0.0
0.0273438 0.0207812 0.0
0.0276562 0.0207812 0.0
0.0279687 0.0207812 0.0
0.0282813 0.0207812 0.0
0.0285937 0.0207812 0.0
[...]
POINT_DATA 36864
SCALARS Intensity float 1
LOOKUP_TABLE default
0.332797
0.389565
0.325068
0.17669
0.228117
0.427725
0.400719
0.566619
0.405753
0.335464
0.340835
0.224171
0.494079
0.278964
0.256578
0.335084
0.266976
0.415649
0.294189
0.282392
0.352066
0.446897
0.1665
0.323099
0.240566
0.161318
0.44099
0.624536
0.38929
0.244185
0.248742
0.31928
0.390336
0.317053
0.195797
0.352549
0.232502
0.277756
0.312839
0.335477
0.275453
0.340682
0.522454
0.100739
0.2208
0.172032
0.355333
0.143458
0.389144
0.320893
0.360978
0.320602
0.251643
0.314289
0.273972
0.394502
0.390476
0.138313
0.319444
0.23331
0.299214
0.512471
0.274342
0.257716
0.505098
0.385319
0.218453
0.0696302
0.623835
0.293722
0.201942
0.463922
0.34251
0.294251
0.476727
0.342656
0.243738
0.442721
0.337745
0.363269
0.333167
0.252243
0.206873
0.474278
0.524533
0.186314
0.292955
0.273256
0.295921
0.232848
0.249297
0.414988
0.391409
0.160325
0.260714
0.177069
0.414271
0.404715
0.234943
0.468159
0.394116
0.439735
0.335258
0.425407
0.400933
0.307936
0.27794
0.313052
0.24801
0.295344
0.389037
0.368402
0.422545
0.460713
0.469672
0.346604
0.330893
0.182327
0.159703
0.476987
0.457472
0.30976
0.348534
0.230354
0.383357
0.256819
0.299347
0.349084
0.380946
0.65199
0.382454
0.271616
0.535452
0.36839
0.278059
0.354062
0.369745
0.180342
0.303247
0.282126
0.196542
0.418934
0.277747
0.0059564
0.297836
0.282003
0.335894
0.3969
0.369181
0.362847
0.374858
0.124412
0.440684
0.40537
0.254894
0.137491
0.327946
0.297019
0.528758
0.368943
0.305308
0.310894
0.399693
0.162188
0.344563
0.293666
0.501351
0.277754
0.450071
0.431397
0.278003
0.430661
0.248914
0.565271
0.245111
0.563985
0.359457
0.402073
0.383625
0.353141
0.280575
0.352981
0.326786
0.381592
0.467531
0.501027
0.346222
0.317936
0.293946
0.246174
0.271598
0.28515
0.480283
0.204616
0.430919
0.447219
0.597364
0.113882
0.439227
0.39668
0.382656
0.260524
0.33826
0.253538
0.193069
0.38405
0.253455
0.261213
0.371136
0.518369
0.351583
0.292588
0.45377
0.34636
0.308701
0.304597
0.475488
0.44527
0.456351
0.202114
0.275007
0.380836
0.38043
0.241837
0.234269
0.290439
0.265942
0.333651
0.216237
0.490014
0.255279
0.256671
0.169136
0.161763
0.298363
0.414845
0.543986
0.453073
0.250455
0.256522
0.368699
0.186422
0.360463
0.196497
0.18686
0.350777
0.396654
0.252885
0.427648
0.286098
0.314742
0.358353
0.168994
0.282924
0.11357
0.211624
0.341776
0.348768
0.438543
0.186159
0.363405
0.529814
0.215879
0.273731
0.341024
0.337104
0.256148
0.343966
0.247249
0.354259
0.289416
0.231742
0.353103
0.517214
0.282092
0.379623
0.473633
0.175397
0.181761
0.362074
0.316139
0.0863574
0.124378
0.334453
0.373715
0.234355
0.183852
0.298594
0.227499
0.556043
0.315777
0.499673
0.157621
0.249495
0.386307
0.511263
0.342505
0.206965
0.440892
0.258358
0.306926
0.419901
0.396922
0.315796
0.207659
0.332396
0.334021
0.462968
0.194875
0.303934
0.520048
0.274794
0.269502
0.309913
0.363534
0.259783
0.450048
0.379665
0.410852
0.249156
0.186369
0.452802
0.197939
0.329489
0.402731
0.182972
0.509903
0.431651
0.166571
0.319369
0.31084
0.346969
0.261837
0.388045
0.361234
0.416639
0.287629
0.517673
0.181631
0.33744
0.323633
0.216933
0.23013
0.527956
0.294392
0.333361
0.471421
0.520596
0.0564944
0.355239
0.435641
0.202253
0.308758
0.361557
0.192819
0.240523
0.24168
0.222905
0.184508
0.311152
0.360944
0.265465
0.375393
0.15091
0.317299
0.47347
0.357018
0.505446
0.271653
0.320618
0.233221
0.234875
0.213742
0.480854
0.213602
0.292511
0.323215
0.353988
0.106643
0.367573
0.425778
0.263819
0.0117319
0.381802
0.5373
0.00640264
0.44518
0.412771
0.270808
0.407032
0.312542
0.376702
0.218782
0.33508
0.442404
0.188465
0.314929
0.435858
0.280428
0.535384
0.392157
0.425864
0.305244
0.237533
0.448828
0.115978
0.249291
0.513994
0.405547
0.408623
0.204707
0.279917
0.421395
0.433692
0.110623
0.332665
0.232773
0.457543
0.332328
0.380399
0.461069
0.335867
0.13957
0.242297
0.301204
0.173272
0.351459
0.126633
0.242251
0.222272
0.401734
0.261023
0.28406
0.31628
0.486814
0.336882
0.24752
0.254925
0.182851
0.330346
0.30225
0.323502
0.166614
0.190763
0.310238
0.2672
0.265719
0.18274
0.40348
0.0673234
0.354138
0.290413
0.253936
0.15442
0.365277
0.291643
0.350278
0.377801
0.321581
0.416887
0.282686
0.243953
0.339902
0.156981
0.279358
0.217214
0.204557
0.519476
0.220725
0.461637
0.191479
0.330616
0.278292
0.446722
0.139481
0.23402
0.30013
0.307296
0.265261
0.295006
0.279111
0.400031
0.30869
0.33841
0.277706
0.26275
0.427807
0.501444
0.374746
0.21182
0.434392
0.171062
0.256343
0.199972
0.259265
0.409409
0.409708
0.402372
0.259058
0.308001
0.179217
0.268707
0.27853
0.423184
0.351108
0.363229
0.269194
0.288395
0.294179
0.298249
0.322817
0.306495
0.36772
0.396958
0.207394
0.345446
0.207084
0.345969
0.470961
0.343093
0.249101
0.323736
0.230384
0.223857
0.310154
0.358755
0.330442
0.221462
0.330227
0.312641
0.455516
0.190504
0.425644
0.273077
0.241064
0.275138
0.235857
0.23444
0.195609
0.373917
0.083507
0.278215
0.250176
0.411571
0.254853
0.377441
0.379192
0.25988
0.149712
0.371976
0.156305
0.267625
0.334789
0.178646
0.239039
0.272486
0.402446
0.172602
0.172288
0.332839
0.369085
0.291624
0.347133
0.303184
0.100952
0.28458
0.16396
0.344015
0.267476
0.276806
0.450402
0.302754
0.342558
0.473303
0.338434
0.400457
0.456041
0.398352
0.306313
0.381192
0.23367
0.545701
0.344127
0.210347
0.323582
0.332866
0.339596
0.289859
0.132984
0.294907
0.408903
-0.00463789
0.447419
0.350899
0.459353
0.402026
0.401505
0.259625
0.246164
0.2647
0.260627
0.250726
0.26627
0.352927
0.279142
0.336001
0.39433
0.26931
0.364463
0.393726
0.398627
0.315144
0.161348
0.449493
0.369414
0.211628
0.455318
0.204755
0.167962
0.328623
0.401174
0.428352
0.245954
0.149878
0.315571
0.27763
0.466317
0.183018
0.386711
0.241112
0.230461
0.433833
0.286163
0.378101
0.131966
0.396689
0.397842
0.504634
0.376459
0.292083
0.205327
0.319353
0.488039
0.415296
0.460543
0.390697
0.542845
0.1936
0.290006
0.201835
0.326372
0.19896
0.296628
0.431477
0.242268
0.286236
0.30208
0.438611
0.31181
0.242642
0.286587
0.33785
0.198653
0.302047
0.364217
0.23444
0.394996
0.473669
0.149319
0.521359
0.341478
0.378587
0.3451
0.343598
0.488786
0.218097
0.361572
0.208639
0.172117
0.240993
0.217423
0.450935
0.294078
0.355883
0.499431
0.351575
0.475208
0.27813
0.216268
0.399044
0.302549
0.211986
0.298252
0.449619
0.427563
0.630156
0.546932
0.346174
0.282303
0.336941
0.206215
0.273732
0.39208
0.235784
0.528627
0.451567
0.252169
0.273839
0.366827
0.214099
0.544489
0.30391
0.234362
0.32905
0.318123
0.236903
0.319835
0.323408
0.330749
0.413827
0.399907
0.345072
0.540902
0.378202
0.361295
0.129738
0.180269
0.396437
0.17096
0.258432
0.322964
0.242485
0.202295
0.262127
0.243745
0.235684
0.262597
0.254518
0.520847
0.294366
0.286059
0.151388
0.312765
0.187088
0.209441
0.464101
0.50963
0.336924
0.265641
0.315499
0.331374
0.334598
0.437158
0.285752
0.397399
0.528922
0.262654
0.319043
0.229535
0.216996
0.512948
0.208087
0.328581
0.201175
0.217774
0.30004
0.391644
0.368758
0.185953
0.275502
0.373732
0.261283
0.339485
0.301152
0.315601
0.342148
0.2604
0.418988
0.401926
0.316284
0.172525
0.194637
0.493614
0.379915
0.322744
0.347293
0.132749
0.116935
0.384375
0.422958
0.303246
0.258612
0.562587
0.261014
0.45543
0.512563
0.0789044
0.0972043
0.390603
0.413192
0.185717
0.360522
0.19378
0.374181
0.380114
0.0969046
0.437569
0.42194
0.325417
0.345045
0.317658
0.167647
0.172824
0.239437
0.361235
0.437212
0.252861
0.350056
0.499926
0.209968
0.443929
0.257522
0.341026
0.504775
0.351434
0.160276
0.420785
0.16755
0.229281
0.236915
0.355287
0.381584
0.417686
0.432476
0.590234
0.368225
0.420756
0.293482
0.180186
0.307737
0.205231
0.466019
0.420358
0.333013
0.307935
0.481698
0.272714
0.305945
0.422817
0.350008
0.274323
0.124035
0.326489
0.243437
0.225617
0.416369
0.278412
0.292986
0.0463956
0.423849
0.334694
0.374803
0.336
0.345093
0.38497
0.435712
0.157949
0.486332
0.180534
0.488021
0.394194
0.222998
0.365253
0.436372
0.032454
0.36131
0.157514
0.203381
0.197851
0.411465
0.48105
0.217902
0.300191
0.146698
0.397666
0.199811
0.26555
0.359782
0.328916
0.29279
0.375865
0.433555
0.384943
0.265992
0.483517
0.330606
0.336755
0.394106
0.347828
0.344574
0.143883
0.143246
0.179148
0.226211
0.384147
0.401548
0.0871606
0.379836
0.388004
0.265701
0.379908
0.405432
0.322254
0.36512
0.322438
0.237428
0.502305
0.364088
0.328245
0.281431
0.372468
0.337631
0.424804
0.31712
0.507973
0.28641
0.119687
0.284317
0.364013
0.406628
0.310361
0.486825
0.10922
0.355804
0.303626
0.419713
0.3308
0.448984
0.450197
0.211227
0.306748
0.287899
0.348179
0.107819
0.179696
0.431415
0.446401
0.33874
0.338525
0.430344
0.397958
0.290063
0.148524
0.393164
0.422729
0.448196
0.246045
0.391471
0.374979
0.366969
0.351194
0.189216
0.31832
0.209364
0.299661
0.255424
0.413506
0.11891
0.132445
0.260744
0.152281
0.315991
0.23626
0.143531
0.264948
0.207843
0.15132
0.351634
0.200607
0.223645
0.259868
0.23355
0.240086
0.22675
0.284647
0.378604
0.312107
0.299732
0.0815647
0.494759
0.253993
0.291023
0.200882
0.194266
0.293063
0.416719
0.239386
0.332815
0.280452
0.228497
0.523767
0.4514
0.21151
0.235348
0.261706
0.479732
0.363489
0.045871
0.154641
0.183871
0.325636
0.281053
0.212988
0.36345
0.37632
0.235745
0.285548
0.306581
0.233855
0.29347
0.33954
0.0565934
0.29316
0.432929
0.168053
0.408541
0.223125
0.137233
0.393036
0.231161
0.251061
0.28707
0.283043
0.334387
0.294204
0.0797936
0.352478
0.305686
0.412106
0.451246
0.315121
0.304254
0.307294
0.267547
0.416834
0.318274
0.326566
0.611696
0.261681
0.363127
0.435945
0.234728
0.420142
0.434199
0.294185
0.446431
0.137367
0.458413
0.151868
0.577221
0.0526275
0.203658
0.30369
0.141147
0.16585
0.304927
0.289621
0.323832
0.297287
0.292513
0.292258
0.298604
0.298087
0.281122
0.371188
0.352226
0.0896709
0.483238
0.360774
0.225142
0.324403
0.342277
0.18737
0.383098
0.394417
0.455072
0.314622
0.375629
0.370982
0.375339
0.104447
0.169755
0.406255
0.373699
0.282736
0.35228
0.458102
0.362669
0.438591
0.284396
0.171485
0.200828
0.392956
0.358143
0.224205
0.462786
0.283686
0.214078
0.377916
0.118149
0.219068
0.322678
0.197254
0.234515
0.28362
0.371673
0.373616
0.39997
0.290646
0.423381
0.151203
0.151895
0.401334
0.333193
0.057828
0.232068
0.432689
0.41033
0.438228
0.337381
0.464567
0.32631
0.354482
0.453905
0.419691
0.325231
0.156624
0.229577
0.322058
0.373515
0.0697728
0.391559
0.0633536
0.310789
0.374964
0.12458
0.310708
0.285208
0.286603
0.431179
0.314212
0.349884
0.336489
0.545998
0.163236
0.43889
0.476124
0.332632
0.18913
0.267249
0.37666
0.302723
0.459802
0.350624
0.181462
0.365008
0.156949
0.129879
0.353303
0.367586
0.47215
0.479768
0.363525
0.152014
0.358081
0.290466
0.285607
0.307188
0.224472
0.290508
0.466076
0.368644
0.14007
0.214765
0.335553
0.258255
0.149699
0.381491
0.377135
0.289895
0.418047
0.362078
0.50515
0.286151
0.262233
0.237982
0.364341
0.329576
0.388249
0.334889
0.338037
0.304278
0.293598
0.335853
0.19339
0.325658
0.407193
0.173355
0.339031
0.37967
0.340124
0.327639
0.398415
0.427453
0.325798
0.345756
0.296863
0.409668
0.473199
0.362507
0.326038
0.233265
0.288107
0.441123
0.21694
0.482764
0.301126
0.313616
0.379041
0.463283
0.254909
0.380982
0.206467
0.411768
0.430136
0.293153
0.29868
0.385817
0.371361
0.332056
0.396125
0.302589
0.292767
0.331074
0.194298
0.261584
0.315314
0.400918
0.356928
0.284925
0.180785
0.215869
0.339542
0.482731
0.271116
0.380134
0.336801
0.337338
0.292022
0.379777
0.500992
0.269624
0.288487
0.261643
0.114609
0.493754
0.253013
0.438299
0.314026
0.394283
0.545149
0.241104
0.245483
0.223766
0.0937857
0.247588
0.260339
0.209869
0.150187
0.321886
0.259042
0.303978
0.229623
0.455834
0.406176
0.398397
0.315554
0.287994
0.374077
0.386084
0.290088
0.385912
0.268764
0.317118
0.356413
0.283205
0.241873
0.352963
0.269635
0.143921
0.375103
0.253617
0.386705
0.511943
0.196736
0.113111
0.357284
0.327278
0.323396
0.361884
0.194955
0.260265
0.197731
0.326185
0.28787
0.49563
0.35095
0.441605
0.527161
0.358914
0.320481
0.48445
0.275361
0.692199
0.222404
0.35972
0.359172
0.314639
0.268267
0.376734
0.190159
0.368406
0.370172
0.418497
0.226057
0.39256
0.325603
0.301313
0.374446
0.267444
0.213098
0.0419385
0.0685729
0.413083
0.325426
0.302074
0.369398
0.442612
0.344405
0.397013
0.398262
0.180866
0.208507
0.214073
0.29206
0.521277
0.338082
0.425674
0.34732
0.483463
0.562808
0.182834
0.26383
0.249178
0.444685
0.269016
0.534069
0.592645
-0.00725843
0.548623
0.150141
0.426571
0.254796
0.399749
0.22067
0.215422
0.429812
0.358921
0.2058
0.344863
0.349886
0.185335
0.230654
0.346811
0.22881
0.352903
0.351424
0.293313
0.294796
0.21647
0.180643
0.29153
0.254311
0.16248
0.394069
0.275587
0.312604
0.5441
0.408941
0.336561
0.344758
0.258938
0.34223
0.218597
0.274544
0.510292
0.327678
0.353279
0.271925
0.33586
0.49004
0.349465
0.218335
0.305495
0.413617
0.198713
0.444557
0.423562
0.334749
0.409372
0.433838
0.325876
0.358439
0.370126
0.490289
0.279183
0.11117
0.348678
0.158616
0.362371
0.213841
0.448576
0.176137
0.33306
0.343926
0.372201
0.413676
0.361516
0.378485
0.303929
0.304537
0.495412
0.309928
0.281791
0.381501
0.343769
0.422469
0.267353
0.487709
0.375098
0.233195
0.472745
0.369287
0.329333
0.200019
0.598292
0.30158
0.343138
0.327995
0.24656
0.171088
0.46963
0.328708
0.162746
0.380079
0.326968
0.30606
0.308182
0.326649
0.203191
0.467012
0.202156
0.354819
0.200958
0.329146
0.244766
0.519819
0.255222
0.342066
0.370804
0.200819
0.175246
0.360656
0.315351
0.581763
0.300575
0.230044
0.25252
0.187095
0.437213
0.330405
0.288933
0.388725
0.334294
0.235559
0.31305
0.155359
0.289846
0.358498
0.409267
0.380161
0.16707
0.312201
0.30665
0.358077
0.174021
0.409701
0.217078
0.37891
0.45505
0.064004
0.211745
0.438758
0.276748
0.49322
0.231639
0.322469
0.164683
0.351359
0.463265
0.213741
0.430021
0.347012
0.322815
0.183116
0.344705
0.228144
0.168212
0.361726
0.388386
0.502755
0.253483
0.401698
0.405397
0.339559
0.245084
0.551191
0.14245
0.3209
0.257237
0.353666
0.221452
0.532165
0.28201
0.413406
0.23393
0.367618
0.363847
0.154495
0.312446
0.300772
0.206124
0.437996
0.289205
0.132849
0.217339
0.314791
0.298835
0.282434
0.476058
0.172255
0.403863
0.510073
0.208122
0.330824
0.371861
0.424103
0.185878
0.31566
0.401376
0.161569
0.335338
0.273045
0.440561
0.400113
0.272182
0.298518
0.466754
0.387639
0.376672
0.347007
0.342065
0.325866
0.142365
0.273825
0.443648
0.395125
0.508746
0.356545
0.237385
0.245936
0.369682
0.183981
0.400056
0.378065
0.261808
0.38583
0.36237
0.339472
0.233544
0.272293
0.300163
0.488388
0.379715
0.377708
0.341699
0.44334
0.428117
0.30852
0.350641
0.436154
0.321816
0.223743
0.255749
0.321308
0.293098
0.423274
0.312748
0.400751
0.407989
0.170596
0.423093
0.338227
0.552881
0.228841
0.217568
0.357583
0.450989
0.294939
0.410682
0.30465
0.186834
0.56847
0.213891
0.404317
0.355265
0.346047
0.291862
0.392337
0.463626
0.376072
0.419893
0.20394
0.3051
0.232871
0.298028
0.285079
0.267324
0.411643
0.374308
0.340475
0.352384
0.26897
0.446917
0.365763
0.298001
0.279618
0.245125
0.29063
0.323439
0.338541
0.264611
0.423267
0.326352
0.362579
0.319848
0.403694
0.447873
0.287243
0.304834
0.244066
0.35206
0.468804
0.286745
0.341645
0.290353
0.317519
0.292566
0.359506
0.221245
0.33904
0.368127
0.377543
0.309414
0.273498
0.464721
0.226281
0.297483
0.499855
0.245659
0.363523
0.375356
0.350792
0.475206
0.292301
0.361958
0.375355
0.478504
0.350405
0.264172
0.265933
0.242252
0.231022
0.437695
0.274622
0.145196
0.353632
0.159704
0.321544
0.198702
0.285617
0.404898
0.297714
0.2266
0.4322
0.289348
0.351969
0.268278
0.428694
0.267954
0.279561
0.407801
0.30612
0.31516
0.199977
0.305258
0.259522
0.399185
0.321931
0.11619
0.078834
0.232608
0.214923
0.308459
0.372437
0.455912
0.199525
0.399619
0.156857
0.43036
0.430546
0.430193
0.290584
0.257043
0.491946
0.183984
0.484651
0.313573
0.370483
0.354795
0.370856
0.235614
0.225444
0.38629
0.443736
0.21966
0.425537
0.27565
0.283718
0.354801
0.420156
0.480383
0.319261
0.136136
0.229749
0.222195
0.302097
0.297556
0.191157
0.355787
0.399007
0.34077
0.214388
0.304521
0.52034
0.246635
0.331241
0.457301
0.206621
0.236706
0.247682
0.379924
0.218112
0.352523
0.133612
0.217298
0.33588
0.422148
0.329279
0.365048
0.0918622
0.332404
0.260556
0.27071
0.392284
0.283353
0.330523
0.23834
0.173187
0.20239
0.181357
0.292968
0.391344
0.328785
0.273955
0.330878
0.330921
0.433907
0.423958
0.216896
0.18554
0.245116
0.265746
0.228912
0.188844
0.220572
0.125456
0.340747
0.498613
0.283126
0.413761
0.268597
0.397413
0.444495
0.289688
0.198398
0.279888
0.398728
0.375423
0.344726
0.237389
0.0805992
0.415021
0.337562
0.439649
0.493851
0.500143
0.380275
0.436505
0.339661
0.427659
0.347304
0.208642
0.317567
0.41003
0.245923
0.369642
0.423813
0.305822
0.425835
0.298365
0.456352
0.395105
0.232923
0.311372
0.325098
0.421344
0.36724
0.433288
0.501595
0.351074
0.420747
0.325794
0.258078
0.326471
0.289776
0.246488
0.536317
0.3667
0.365433
0.374946
0.244652
0.365999
0.400535
0.3683
0.119927
0.181284
0.291403
0.488161
0.225997
0.359333
0.248247
0.37812
0.353356
0.340861
0.437807
0.535362
0.257634
0.337959
0.391908
0.364165
0.271315
0.376505
0.19282
0.190711
0.384336
0.338592
0.202325
0.355721
0.344663
0.338863
0.169851
0.364193
0.276526
0.2246
0.290043
0.242522
0.370611
0.263923
0.137139
0.470832
0.154776
0.181051
0.4451
0.48116
0.280454
0.186319
0.43909
0.195069
0.198961
0.439652
0.376486
0.248895
0.391078
0.142
0.5059
0.323138
0.438185
0.319536
0.252818
0.26977
0.248846
0.415844
0.411668
0.338962
0.385464
0.217357
0.293923
0.308795
0.331679
0.154849
0.264374
0.419026
0.286962
0.380772
0.359125
0.3705
0.415868
0.417203
0.161513
0.160032
0.355516
0.213392
0.331511
0.241003
0.364991
0.304364
0.310213
0.25691
0.27433
0.381564
0.447999
0.273243
0.267763
0.380748
0.379251
0.151036
0.435453
0.307612
0.433447
0.271111
0.34764
0.467931
0.388177
0.314477
0.150517
0.237097
0.283216
0.179251
0.34857
0.284402
0.249054
0.258866
0.172163
0.266012
0.22908
0.286658
0.272492
0.320235
0.169984
0.430262
0.261217
0.0946886
0.178729
0.288371
0.314398
0.354328
0.206884
0.416877
0.473229
0.32976
0.280731
0.277932
0.335359
0.2852
0.291839
0.254455
0.321427
0.41106
0.454633
0.254188
0.262024
0.198592
0.458702
0.360005
0.389633
0.1786
0.389436
0.395492
0.214864
0.170218
0.26174
0.232135
0.416961
0.367656
0.245123
0.22807
0.271745
0.321728
0.0372582
0.312368
0.17073
0.243495
0.291717
0.279307
0.362533
0.282043
0.4238
0.523068
0.00489489
0.180758
0.453703
0.273635
0.278818
0.31504
0.339786
0.397416
0.17479
0.260249
0.183549
0.238735
0.365313
0.301662
0.324261
0.345587
0.375472
0.269957
0.129496
0.351783
0.458312
0.329406
0.307563
0.223345
0.460884
0.334952
0.281417
0.378148
0.230267
0.279607
0.478956
0.604264
0.470087
0.420803
0.29237
0.166014
0.315175
0.458401
0.313072
0.21343
0.347099
0.292889
0.383223
0.435508
0.251719
0.214457
0.280815
0.210468
0.497807
0.371103
0.372737
0.403134
0.28955
0.415029
0.350787
0.310851
0.255341
0.480703
0.285605
0.297562
0.451649
0.410571
0.179451
0.425879
0.393583
0.345245
0.111269
0.333365
0.258063
0.445023
0.160338
0.402449
0.219052
0.627861
0.240082
0.250778
0.324302
0.244125
0.330847
0.288277
0.211977
0.350544
0.286935
0.234826
0.386586
0.195228
0.324852
0.49856
0.41367
0.39008
0.384354
0.45389
0.151039
0.23879
0.268731
0.283303
0.438211
0.283843
0.424811
0.219908
0.254416
0.357348
0.220403
0.0960229
0.385399
0.145965
0.50417
0.170704
0.269217
0.39012
0.49562
0.380674
0.316694
0.227349
0.46051
0.454861
0.18125
0.231001
0.353116
0.221069
0.258192
0.227005
0.193069
0.281183
0.350409
0.23145
0.459923
0.370087
0.484326
0.199917
0.374541
0.293406
0.192995
0.279976
0.314714
0.482474
0.446035
0.385974
0.383785
0.359174
0.281028
0.359673
0.414533
0.363735
0.412451
0.283889
0.323
0.392477
0.230327
0.154228
0.363597
0.183969
0.158731
0.490104
0.306922
0.251064
0.238886
0.367317
0.325521
0.392994
0.296038
0.322374
0.25021
0.376164
0.309175
0.236206
0.345539
0.359179
0.286086
0.340827
0.324416
0.371749
0.34028
0.316782
0.450231
0.183854
0.238038
0.324327
0.328126
0.189304
0.158204
0.33832
0.128494
0.313608
0.386493
0.26095
0.390689
0.293908
0.33126
0.331862
0.418993
0.452309
0.076964
0.16427
0.231929
0.314536
0.303361
0.211774
0.335405
0.361388
0.428039
0.299807