# vtk DataFile Version 2.0
Vtkoutput example
ASCII

DATASET UNSTRUCTURED_GRID
POINTS 3368 float
0.1 0.1 0.0
0.1 0.098 0.0
0.098 0.1 0.0
0.1 0.096 0.0
0.096 0.1 0.0
0.0986667 0.0973333 0.0
0.097 0.098 0.0
0.0985 0.0955 0.0
0.1 0.094 0.0
0.1 0.092 0.0
0.094 0.1 0.0
0.0952 0.0984 0.0
0.096 0.096 0.0
0.0973333 0.0933333 0.0
0.0985 0.09125 0.0
0.1 0.09 0.0
0.1 0.088 0.0
0.0933333 0.0986667 0.0
0.092 0.1 0.0
0.0942857 0.0957143 0.0
0.0928571 0.0971429 0.0
0.0955 0.09375 0.0
0.09625 0.092375 0.0
0.097 0.091 0.0
0.0985 0.0895 0.0
0.1 0.086 0.0
0.0986 0.0874 0.0
0.0914286 0.0985714 0.0
0.09 0.1 0.0
0.0925 0.0955 0.0
0.0933333 0.0937778 0.0
0.091 0.097 0.0
0.0944 0.0916 0.0
0.0958 0.0902 0.0
0.0972 0.0888 0.0
0.1 0.084 0.0
0.0985455 0.0854545 0.0
0.0970909 0.0869091 0.0
0.0916 0.0944 0.0
0.0895 0.0985 0.0
0.088 0.1 0.0
0.0902 0.0958 0.0
0.0927273 0.0912727 0.0
0.0912727 0.0927273 0.0
0.0888 0.0972 0.0
0.1 0.082 0.0
0.0933333 0.0895 0.0
0.0946667 0.088 0.0
0.0986154 0.0833846 0.0
0.0953846 0.0861538 0.0
0.0972308 0.0847692 0.0
0.0898182 0.0941818 0.0
0.0916923 0.0903077 0.0
0.0874 0.0986 0.0
0.086 0.1 0.0
0.088 0.0955 0.0
0.0903077 0.0916923 0.0
0.0889231 0.0930769 0.0
0.0866667 0.097 0.0
0.0914286 0.0885714 0.0
0.1 0.08 0.0
0.0985714 0.0814286 0.0
0.0928571 0.0871429 0.0
0.093803 0.0856583 0.0
0.0971429 0.0828571 0.0
0.0957143 0.0842857 0.0
0.09 0.09 0.0
0.0853333 0.0985 0.0
0.084 0.1 0.0
0.0861538 0.0944615 0.0
0.0871429 0.0928571 0.0
0.0885714 0.0914286 0.0
0.0842857 0.0957143 0.0
0.1 0.078 0.0
0.0908351 0.0865564 0.0
0.0896619 0.0880556 0.0
0.0981681 0.0792296 0.0
0.0967395 0.0806581 0.0
0.0922214 0.0851627 0.0
0.0939507 0.0838822 0.0
0.0949538 0.0824438 0.0
0.0933484 0.0824452 0.0
0.0881203 0.0899177 0.0
0.0847801 0.0941363 0.0
0.0833846 0.0986154 0.0
0.0830769 0.0972308 0.0
0.082 0.1 0.0
0.0852745 0.0925583 0.0
0.0866918 0.0913462 0.0
0.0823145 0.0959505 0.0
0.0828603 0.094105 0.0
0.1 0.076 0.0
0.1 0.074 0.0
0.0982289 0.0772717 0.0
0.0907522 0.0847635 0.0
0.0893238 0.0861112 0.0
0.0877823 0.0879732 0.0
0.0963361 0.0784591 0.0
0.0949076 0.0798877 0.0
0.0921871 0.0834788 0.0
0.090414 0.0828596 0.0
0.0927462 0.0810081 0.0
0.0862407 0.0898353 0.0
0.0859877 0.088377 0.0
0.0834062 0.0922594 0.0
0.0814286 0.0985714 0.0
0.0803432 0.0961867 0.0
0.08 0.1 0.0
0.0846884 0.090827 0.0
0.0805148 0.0942801 0.0
0.0809035 0.0928504 0.0
0.0981989 0.0752744 0.0
0.1 0.072 0.0
0.1 0.07 0.0
0.0981041 0.0733487 0.0
0.0964577 0.0765433 0.0
0.0889858 0.0841667 0.0
0.0873602 0.0855428 0.0
0.0857347 0.0869188 0.0
0.0945042 0.0776887 0.0
0.0934328 0.0787601 0.0
0.0915171 0.0798147 0.0
0.0886483 0.0822256 0.0
0.0909506 0.0812043 0.0
0.0841092 0.0882948 0.0
0.082119 0.0912445 0.0
0.079186 0.0982115 0.0
0.0790363 0.0944573 0.0
0.0783719 0.096423 0.0
0.078 0.1 0.0
0.0824837 0.0896708 0.0
0.0796695 0.0916617 0.0
0.0788237 0.0928482 0.0
0.1 0.068 0.0
0.0963978 0.0745488 0.0
0.0981595 0.071385 0.0
0.0981594 0.0694975 0.0
0.0962082 0.0726975 0.0
0.0946866 0.075815 0.0
0.0870503 0.083628 0.0
0.0854718 0.0853187 0.0
0.0837993 0.08638 0.0
0.0926722 0.0769182 0.0
0.091182 0.0779826 0.0
0.0867972 0.0821721 0.0
0.0897506 0.079125 0.0
0.08832 0.0803376 0.0
0.0825288 0.0872381 0.0
0.0808318 0.0902295 0.0
0.0772878 0.0982116 0.0
0.0775579 0.0946344 0.0
0.0765756 0.0964232 0.0
0.076 0.1 0.0
0.0812583 0.0880961 0.0
0.0788181 0.0895102 0.0
0.0778012 0.0913628 0.0
0.0767439 0.0928459 0.0
0.1 0.066 0.0
0.0981088 0.0675033 0.0
0.0944213 0.0740265 0.0
0.096208 0.0709224 0.0
0.0963188 0.068995 0.0
0.0943124 0.0720462 0.0
0.0929154 0.0750866 0.0
0.085209 0.0837187 0.0
0.0828912 0.0846004 0.0
0.0818638 0.0858412 0.0
0.090847 0.0761506 0.0
0.0849461 0.0821186 0.0
0.0897109 0.0773429 0.0
0.0863674 0.0804064 0.0
0.0879917 0.0784496 0.0
0.0753591 0.0981221 0.0
0.0758634 0.0946348 0.0
0.0745802 0.0963585 0.0
0.074 0.1 0.0
0.0800328 0.0865215 0.0
0.0788128 0.0872285 0.0
0.0751513 0.0928464 0.0
0.0779292 0.0884357 0.0
0.0770457 0.0896429 0.0
0.0759328 0.091064 0.0
0.0981087 0.065622 0.0
0.1 0.064 0.0
0.0962176 0.0670066 0.0
0.0925617 0.0733687 0.0
0.0944785 0.070155 0.0
0.0944782 0.0684924 0.0
0.0924165 0.0713949 0.0
0.0911508 0.0743609 0.0
0.083095 0.0820651 0.0
0.0815538 0.0839264 0.0
0.0890911 0.0754121 0.0
0.0844148 0.0804752 0.0
0.0824621 0.080544 0.0
0.0876635 0.0765616 0.0
0.0858361 0.078763 0.0
0.0867498 0.0776623 0.0
0.073397 0.0981791 0.0
0.0738704 0.0945377 0.0
0.0727939 0.0963582 0.0
0.0800256 0.0834793 0.0
0.072 0.1 0.0
0.0788074 0.0849469 0.0
0.0775891 0.0864145 0.0
0.0734362 0.0924882 0.0
0.0744417 0.0910645 0.0
0.0763708 0.0878821 0.0
0.0751526 0.0893497 0.0
0.096306 0.0650659 0.0
0.098083 0.0635333 0.0
0.1 0.062 0.0
0.0943264 0.0665098 0.0
0.0910187 0.0723817 0.0
0.092638 0.06954 0.0
0.0924346 0.0675379 0.0
0.0905644 0.0707587 0.0
0.0894532 0.0736628 0.0
0.0812439 0.0820116 0.0
0.0811835 0.0795222 0.0
0.0873352 0.0746736 0.0
0.0836804 0.0790764 0.0
0.0824513 0.0785595 0.0
0.0861169 0.0761412 0.0
0.0848987 0.0776088 0.0
0.0714778 0.0980834 0.0
0.0721909 0.0945373 0.0
0.0709556 0.0961668 0.0
0.0779375 0.0828649 0.0
0.0788591 0.0816108 0.0
0.07 0.1 0.0
0.0715879 0.0927165 0.0
0.0771945 0.0842106 0.0
0.0759967 0.0856786 0.0
0.0728038 0.0906354 0.0
0.0737591 0.0893503 0.0
0.0747236 0.0877591 0.0
0.094459 0.0645989 0.0
0.096166 0.0630666 0.0
0.0980831 0.0616591 0.0
0.1 0.06 0.0
0.0924351 0.0660131 0.0
0.0892923 0.0716862 0.0
0.0908394 0.067499 0.0
0.0905638 0.0693185 0.0
0.0890194 0.0702441 0.0
0.0924346 0.0644881 0.0
0.0877555 0.0729647 0.0
0.0797807 0.0803567 0.0
0.0799049 0.0785003 0.0
0.0813235 0.077359 0.0
0.0855793 0.0739352 0.0
0.0834939 0.0770181 0.0
0.0841607 0.0750765 0.0
0.0695129 0.0981372 0.0
0.0704333 0.0942502 0.0
0.0690258 0.0962744 0.0
0.0763246 0.0821286 0.0
0.0770676 0.0807829 0.0
0.068 0.1 0.0
0.0696015 0.0925482 0.0
0.0709929 0.0909199 0.0
0.0755816 0.0834744 0.0
0.0739982 0.0854319 0.0
0.0721895 0.0888354 0.0
0.0730764 0.0876361 0.0
0.094249 0.0625998 0.0
0.0961663 0.0613181 0.0
0.1 0.058 0.0
0.098083 0.0597848 0.0
0.0906059 0.0655327 0.0
0.0890752 0.0670174 0.0
0.087566 0.0709908 0.0
0.0887464 0.068802 0.0
0.0921794 0.0625253 0.0
0.0906053 0.0641225 0.0
0.0860579 0.0722666 0.0
0.0783176 0.0787017 0.0
0.0798292 0.0769478 0.0
0.0810705 0.0759492 0.0
0.0838234 0.0731967 0.0
0.0824469 0.0745729 0.0
0.0675185 0.0980834 0.0
0.068199 0.0942499 0.0
0.0675987 0.0923332 0.0
0.067037 0.0961669 0.0
0.0751257 0.0812696 0.0
0.0763355 0.0793341 0.0
0.066 0.1 0.0
0.0704149 0.0891746 0.0
0.0690157 0.0907283 0.0
0.0739688 0.0827382 0.0
0.0728118 0.0842068 0.0
0.0723938 0.085922 0.0
0.0715751 0.0870354 0.0
0.0942494 0.0609772 0.0
0.0962271 0.059368 0.0
0.1 0.056 0.0
0.0979955 0.0577978 0.0
0.0923344 0.0606366 0.0
0.0889338 0.0653888 0.0
0.087311 0.0665357 0.0
0.0858396 0.0702953 0.0
0.0869291 0.0682856 0.0
0.0903049 0.0621718 0.0
0.0887925 0.0637602 0.0
0.0843603 0.0715684 0.0
0.0775558 0.0775257 0.0
0.078304 0.0762211 0.0
0.0797536 0.0753953 0.0
0.080813 0.0737125 0.0
0.0820675 0.0724582 0.0
0.0670181 0.0904794 0.0
0.0655472 0.0981257 0.0
0.0665554 0.0942503 0.0
0.0660739 0.0923337 0.0
0.0652745 0.0961669 0.0
0.0732222 0.0809568 0.0
0.0745406 0.0799839 0.0
0.0756034 0.0778854 0.0
0.064 0.1 0.0
0.0689004 0.0886242 0.0
0.0698369 0.0874293 0.0
0.0671089 0.0889434 0.0
0.0720316 0.0824925 0.0
0.0712751 0.0840732 0.0
0.0704188 0.0856849 0.0
0.1 0.054 0.0
0.0943407 0.0590519 0.0
0.0923339 0.0591394 0.0
0.0959911 0.0575957 0.0
0.0980189 0.055822 0.0
0.1 0.052 0.0
0.0904971 0.0603098 0.0
0.0904965 0.0589331 0.0
0.0869805 0.0645805 0.0
0.0855468 0.066054 0.0
0.0853298 0.06747 0.0
0.0835974 0.0701975 0.0
0.0851128 0.0688859 0.0
0.0884304 0.0618183 0.0
0.0872849 0.0627847 0.0
0.0819538 0.0710171 0.0
0.076794 0.0763497 0.0
0.0779847 0.074814 0.0
0.0791753 0.0732783 0.0
0.0803659 0.0717426 0.0
0.0818402 0.0695759 0.0
0.0656082 0.09048 0.0
0.0635476 0.0980522 0.0
0.0649117 0.0942503 0.0
0.0645489 0.0923337 0.0
0.0632927 0.0960311 0.0
0.0717946 0.0808946 0.0
0.0724778 0.0794249 0.0
0.0736765 0.0779443 0.0
0.0749633 0.0764788 0.0
0.062 0.1 0.0
0.0651466 0.0886429 0.0
0.0662756 0.0869815 0.0
0.0678662 0.0871571 0.0
0.0705496 0.0823559 0.0
0.0697384 0.0839397 0.0
0.0678993 0.0849501 0.0
0.098033 0.0538446 0.0
0.0940568 0.0570652 0.0
0.0920036 0.0571935 0.0
0.0960379 0.055644 0.0
0.0940568 0.055466 0.0
0.0980375 0.0518664 0.0
0.1 0.05 0.0
0.1 0.048 0.0
0.1 0.046 0.0
0.1 0.044 0.0
0.1 0.042 0.0
0.1 0.04 0.0
0.0886598 0.059983 0.0
0.0900823 0.0569997 0.0
0.0888399 0.0581304 0.0
0.0851677 0.0641044 0.0
0.0837825 0.0655724 0.0
0.0832956 0.0682617 0.0
0.0855146 0.0623371 0.0
0.086556 0.0614649 0.0
0.0793757 0.0703332 0.0
0.0773445 0.0734075 0.0
0.0758338 0.0742399 0.0
0.0780771 0.0717982 0.0
0.0792227 0.0689505 0.0
0.0807405 0.068241 0.0
0.0637509 0.0906897 0.0
0.070367 0.0808324 0.0
0.0616734 0.0980521 0.0
0.0626429 0.0941567 0.0
0.062191 0.0922109 0.0
0.0613467 0.0961042 0.0
0.0721728 0.0775687 0.0
0.0709396 0.078371 0.0
0.0743231 0.0750723 0.0
0.0728124 0.0759048 0.0
0.0745829 0.0727353 0.0
0.06 0.1 0.0
0.0646851 0.0868059 0.0
0.0633169 0.0888932 0.0
0.0661752 0.0853724 0.0
0.0690676 0.0822192 0.0
0.0673987 0.083113 0.0
0.0960659 0.0536892 0.0
0.096075 0.0517328 0.0
0.0920969 0.0552899 0.0
0.0901981 0.0551193 0.0
0.0940564 0.0538668 0.0
0.0980375 0.05 0.0
0.098033 0.0480218 0.0
0.096075 0.05 0.0
0.0980328 0.0461554 0.0
0.0980189 0.044178 0.0
0.1 0.038 0.0
0.1 0.036 0.0
0.0979957 0.0422022 0.0
0.0981134 0.040316 0.0
0.0980831 0.0383409 0.0
0.0868225 0.0596562 0.0
0.0870317 0.0578275 0.0
0.0882992 0.0549486 0.0
0.0881611 0.0568059 0.0
0.0833781 0.0636344 0.0
0.0818476 0.0645914 0.0
0.0820716 0.0660093 0.0
0.0837668 0.0618951 0.0
0.0849842 0.0603442 0.0
0.0777876 0.0688656 0.0
0.0769789 0.0703181 0.0
0.0757809 0.0715267 0.0
0.0790696 0.0675679 0.0
0.079811 0.0662628 0.0
0.0646651 0.0851706 0.0
0.0617574 0.0903439 0.0
0.068964 0.0806947 0.0
0.0697063 0.0791733 0.0
0.0597991 0.0980522 0.0
0.0606938 0.0922104 0.0
0.0610201 0.0941563 0.0
0.0593954 0.0961611 0.0
0.069791 0.0775696 0.0
[...]
POINT_DATA 3368
VECTORS u float
0.00845496 0.00801403 0.0
0.00832157 0.00801142 0.0
0.00846121 0.00791884 0.0
0.00818552 0.00800859 0.0
0.00846782 0.0078222 0.0
0.00827828 0.00794543 0.0
0.00832703 0.00786512 0.0
0.0081512 0.00793328 0.0
0.00804696 0.00800562 0.0
0.00790576 0.00800259 0.0
0.00847484 0.00772391 0.0
0.00835873 0.00777719 0.0
0.0081873 0.00780873 0.0
0.00799626 0.00786846 0.0
0.00784774 0.00792353 0.0
0.00776185 0.00799951 0.0
0.00761485 0.00799639 0.0
0.00838208 0.00768445 0.0
0.00848214 0.00762367 0.0
0.00816727 0.00771948 0.0
0.0082727 0.00765247 0.0
0.00802417 0.00777457 0.0
0.00792447 0.00780886 0.0
0.00782474 0.00784391 0.0
0.00771902 0.00791937 0.0
0.00746451 0.00799311 0.0
0.00756184 0.00791966 0.0
0.00837987 0.00758642 0.0
0.00848954 0.00752138 0.0
0.00815186 0.00762494 0.0
0.00802382 0.00766012 0.0
0.00826434 0.00755427 0.0
0.00786213 0.00770698 0.0
0.00776058 0.0077769 0.0
0.00766055 0.00784762 0.0
0.00731092 0.00798942 0.0
0.00741185 0.00791173 0.0
0.00751487 0.00783567 0.0
0.008069 0.00757019 0.0
0.00837891 0.00748491 0.0
0.00849663 0.00741672 0.0
0.00817461 0.00750334 0.0
0.00783263 0.00761407 0.0
0.00794127 0.00754189 0.0
0.00828164 0.00743757 0.0
0.00715311 0.00798507 0.0
0.00769723 0.00763837 0.0
0.00758584 0.00770563 0.0
0.00724949 0.0079097 0.0
0.00744411 0.00773776 0.0
0.00734731 0.00783628 0.0
0.00805085 0.00747082 0.0
0.00775446 0.00755074 0.0
0.00839065 0.00737293 0.0
0.00850304 0.00730931 0.0
0.00815139 0.00737961 0.0
0.00785912 0.00748117 0.0
0.00796444 0.00741253 0.0
0.00826788 0.00731805 0.0
0.00761601 0.00752551 0.0
0.00699133 0.00797931 0.0
0.00709033 0.00790079 0.0
0.00750804 0.00759955 0.0
0.00739319 0.00764625 0.0
0.0071921 0.00782416 0.0
0.00729543 0.00774877 0.0
0.00772465 0.00745222 0.0
0.00838593 0.00725782 0.0
0.00850797 0.00719968 0.0
0.00806843 0.00726406 0.0
0.00794359 0.00730722 0.0
0.00783412 0.00737934 0.0
0.00816534 0.00716747 0.0
0.00682646 0.00797205 0.0
0.00744955 0.00747943 0.0
0.00756724 0.00741978 0.0
0.00690167 0.00786835 0.0
0.00700342 0.00779182 0.0
0.00734154 0.00755277 0.0
0.00724711 0.00764624 0.0
0.00713519 0.00769689 0.0
0.00711998 0.00760497 0.0
0.00771259 0.00734137 0.0
0.00804121 0.0071798 0.0
0.00839658 0.00714905 0.0
0.00828627 0.00711441 0.0
0.00851093 0.00708769 0.0
0.00791663 0.00719356 0.0
0.00782354 0.00726743 0.0
0.00818126 0.00705273 0.0
0.0080351 0.00706261 0.0
0.00665809 0.00796214 0.0
0.00648671 0.00794873 0.0
0.00673469 0.00786217 0.0
0.00729874 0.00746452 0.0
0.00740511 0.00738753 0.0
0.00755369 0.00730672 0.0
0.00680802 0.00775745 0.0
0.00691403 0.00768227 0.0
0.00719919 0.00754203 0.0
0.00713284 0.00743409 0.0
0.0069883 0.00756219 0.0
0.00770103 0.00722703 0.0
0.0075815 0.00719977 0.0
0.00788882 0.00707462 0.0
0.00839255 0.00703569 0.0
0.00819477 0.00693532 0.0
0.00851146 0.00697263 0.0
0.00777716 0.00714022 0.0
0.0080421 0.00691761 0.0
0.00792929 0.00692243 0.0
0.00655884 0.00784764 0.0
0.00631364 0.00793109 0.0
0.0061402 0.0079079 0.0
0.00638441 0.00782655 0.0
0.00663857 0.00775328 0.0
0.00723761 0.00735602 0.0
0.00734896 0.00726454 0.0
0.00746001 0.00717186 0.0
0.00671075 0.00764636 0.0
0.00679352 0.00759023 0.0
0.00686787 0.00748444 0.0
0.00706494 0.0073252 0.0
0.00698872 0.00745805 0.0
0.00756981 0.00707923 0.0
0.0078049 0.00698077 0.0
0.00835845 0.0068966 0.0
0.00805007 0.00682533 0.0
0.00820619 0.00681563 0.0
0.00850808 0.00685592 0.0
0.0076797 0.00698648 0.0
0.00783038 0.00682422 0.0
0.00792145 0.00678509 0.0
0.00596786 0.0078782 0.0
0.00645539 0.00773553 0.0
0.00620815 0.00781056 0.0
0.00603689 0.00778767 0.0
0.00627833 0.00770894 0.0
0.0065394 0.00764561 0.0
0.00718148 0.00723353 0.0
0.00732412 0.00714341 0.0
0.00740998 0.00704243 0.0
0.00661145 0.00753628 0.0
0.00669303 0.00745517 0.0
0.00705042 0.0072095 0.0
0.006786 0.00737634 0.0
0.0068892 0.0072953 0.0
0.0074793 0.00696546 0.0
0.00772104 0.00688302 0.0
0.0083501 0.00678015 0.0
0.00805681 0.00673062 0.0
0.00819549 0.00670042 0.0
0.00849893 0.0067364 0.0
0.00754933 0.00688655 0.0
0.00765758 0.0067349 0.0
0.00780083 0.0066915 0.0
0.00791109 0.00664348 0.0
0.00579973 0.00784079 0.0
0.00585515 0.00775474 0.0
0.00636452 0.00761734 0.0
0.00611052 0.00769113 0.0
0.00593117 0.00767412 0.0
0.00616997 0.0075946 0.0
0.00643817 0.0075395 0.0
0.00718332 0.00711643 0.0
0.0072584 0.00696779 0.0
0.00736234 0.00690793 0.0
0.00651111 0.00742601 0.0
0.00704017 0.00709082 0.0
0.0066146 0.00736556 0.0
0.006885 0.00717413 0.0
0.00670662 0.00726722 0.0
0.00832913 0.0066577 0.0
0.00804596 0.00661785 0.0
0.00817423 0.00656909 0.0
0.00848302 0.00661609 0.0
0.00741867 0.00678392 0.0
0.00747598 0.00670488 0.0
0.00790106 0.00653248 0.0
0.00757092 0.00665612 0.0
0.00766249 0.0066102 0.0
0.00776887 0.00655359 0.0
0.00568917 0.0077206 0.0
0.00563703 0.00779472 0.0
0.00574074 0.00763969 0.0
0.0062615 0.00750781 0.0
0.00598819 0.00758587 0.0
0.0058238 0.00756699 0.0
0.0060601 0.00748413 0.0
0.00633616 0.00743404 0.0
0.00703248 0.00696505 0.0
0.0071992 0.00686986 0.0
0.00641395 0.00732026 0.0
0.00688471 0.00704733 0.0
0.00688989 0.0069141 0.0
0.00651646 0.00723907 0.0
0.00672376 0.00713333 0.0
0.00661996 0.0071867 0.0
0.00831457 0.00653531 0.0
0.00802124 0.00648049 0.0
0.00815498 0.0064512 0.0
0.00716172 0.00675613 0.0
0.00845873 0.00649539 0.0
0.00728814 0.00667841 0.0
0.00740917 0.00660357 0.0
0.00785952 0.00640357 0.0
0.00776054 0.00644533 0.0
0.007524 0.00653277 0.0
0.00763407 0.00646531 0.0
0.00556607 0.00761148 0.0
0.00551032 0.00767363 0.0
0.00548502 0.00773853 0.0
0.00562543 0.00753262 0.0
0.00613032 0.00741507 0.0
0.00587662 0.0074801 0.0
0.00566379 0.00744949 0.0
0.00595172 0.00737911 0.0
0.00623722 0.00733349 0.0
0.00702871 0.00683607 0.0
0.00679253 0.00681947 0.0
0.00631666 0.00721233 0.0
0.00674785 0.00699272 0.0
0.00669586 0.00690594 0.0
0.00646027 0.00714199 0.0
0.00660469 0.0070687 0.0
0.00828005 0.00641133 0.0
0.00800372 0.00636452 0.0
0.00811359 0.00632442 0.0
0.0071135 0.00659341 0.0
0.00699831 0.00665473 0.0
0.00842513 0.00637555 0.0
0.00785867 0.00627594 0.0
0.00723027 0.006548 0.0
0.00735122 0.00647259 0.0
0.007717 0.00631545 0.0
0.00762842 0.00635971 0.0
0.00751244 0.00640474 0.0
0.00544824 0.00750889 0.0
0.00538337 0.00756387 0.0
0.00536083 0.00762531 0.0
0.0053453 0.00767158 0.0
0.00550807 0.00743133 0.0
0.00602425 0.00731455 0.0
0.0056117 0.00736694 0.0
0.00579869 0.00736792 0.0
0.00586371 0.00729186 0.0
0.00535697 0.0074103 0.0
0.00613831 0.00723197 0.0
0.00687557 0.00671888 0.0
0.00669614 0.00672149 0.0
0.006577 0.00682445 0.0
0.00622094 0.00710378 0.0
0.00654084 0.0069746 0.0
0.00633647 0.00701553 0.0
0.00824977 0.00628913 0.0
0.00795809 0.00623526 0.0
0.00808813 0.00620026 0.0
0.00705599 0.00645691 0.0
0.0069291 0.00650809 0.0
0.0083796 0.00625805 0.0
0.00782201 0.00612799 0.0
0.00772263 0.00618668 0.0
0.00717331 0.00641066 0.0
0.00733277 0.00630848 0.0
0.00758305 0.00622867 0.0
0.00750034 0.0062734 0.0
0.00525659 0.00746265 0.0
0.00523823 0.00752316 0.0
0.00522205 0.00759323 0.0
0.00522337 0.0075692 0.0
0.00539626 0.00733605 0.0
0.00550893 0.00727321 0.0
0.00591783 0.007214 0.0
0.00569673 0.00726801 0.0
0.00515881 0.00736759 0.0
0.00524942 0.00731983 0.0
0.00603961 0.00712962 0.0
0.00672307 0.00659676 0.0
0.00653804 0.00671171 0.0
0.00642732 0.00680365 0.0
0.00612466 0.00699134 0.0
0.0062744 0.00690086 0.0
0.00819931 0.00616436 0.0
0.00791944 0.00608153 0.0
0.00777534 0.00597884 0.0
0.00803605 0.00606878 0.0
0.00698729 0.00634925 0.0
0.00679703 0.00643798 0.0
0.00832115 0.00614491 0.0
0.00759494 0.00609821 0.0
0.00768782 0.00603253 0.0
0.00711855 0.00626718 0.0
0.00723977 0.00618945 0.0
0.00736889 0.00618495 0.0
0.00745112 0.00613938 0.0
0.00511615 0.00742932 0.0
0.00509355 0.00747402 0.0
0.00511734 0.00750386 0.0
0.00509021 0.00749644 0.0
0.00499468 0.00734092 0.0
0.00532583 0.00725367 0.0
0.00540723 0.00717915 0.0
0.00581102 0.00711219 0.0
0.0055968 0.00716811 0.0
0.00504408 0.00728037 0.0
0.00514337 0.00723238 0.0
0.00594127 0.00702449 0.0
0.00661058 0.00653181 0.0
0.0064679 0.00658959 0.0
0.00637005 0.00670445 0.0
0.00617539 0.00678529 0.0
0.00603001 0.00687562 0.0
0.00764262 0.00587733 0.0
0.00814644 0.00604882 0.0
0.00788524 0.00597109 0.0
0.00774681 0.00587161 0.0
0.00798846 0.00595874 0.0
0.00697044 0.0061781 0.0
0.00687282 0.00628643 0.0
0.00666241 0.00636683 0.0
0.00824766 0.00603665 0.0
0.00754457 0.00596467 0.0
0.00746929 0.00600921 0.0
0.00754623 0.00583301 0.0
0.00710649 0.00609367 0.0
0.00723239 0.00605434 0.0
0.00735092 0.00601401 0.0
0.0050354 0.00740227 0.0
0.00497126 0.00738727 0.0
0.00487298 0.00730966 0.0
0.00496119 0.00741081 0.0
0.00498383 0.0074204 0.0
0.00497725 0.0072887 0.0
0.00487823 0.00726014 0.0
0.00476162 0.0072361 0.0
0.00517296 0.0071503 0.0
0.00530381 0.00708359 0.0
0.00546664 0.00707766 0.0
0.00577062 0.00697734 0.0
0.00563331 0.00706756 0.0
0.00492798 0.00719334 0.0
0.00498058 0.00715328 0.0
0.0058587 0.00686867 0.0
0.00649219 0.00646429 0.0
0.0063137 0.00656257 0.0
0.00612669 0.00666067 0.0
0.00593954 0.00675565 0.0
0.00567519 0.00686349 0.0
0.00761838 0.00577275 0.0
0.00807098 0.00593234 0.0
0.00784438 0.00586381 0.0
0.00771263 0.00576701 0.0
0.0079152 0.00583521 0.0
0.00697444 0.00604746 0.0
0.00684084 0.00609175 0.0
0.00668645 0.00619181 0.0
0.00652414 0.00630326 0.0
0.00815751 0.00593711 0.0
0.00750014 0.00567329 0.0
0.00741321 0.0057042 0.0
0.00743943 0.0058386 0.0
0.00710163 0.00595603 0.0
0.00722391 0.005915 0.0
0.00728966 0.00577982 0.0
0.00490109 0.00733442 0.0
0.0048177 0.00732444 0.0
0.00471662 0.007254 0.0
0.00485412 0.00734581 0.0
0.00473258 0.00727714 0.0
0.00484317 0.00723888 0.0
0.00493846 0.00716276 0.0
0.00494539 0.00702716 0.0
0.00496378 0.00688035 0.0
0.0050156 0.00672648 0.0
0.00508975 0.00656726 0.0
0.0051816 0.00640142 0.0
0.00476088 0.00717924 0.0
0.00459528 0.00718186 0.0
0.00460986 0.00715866 0.0
0.00505919 0.00705504 0.0
0.00519763 0.00698494 0.0
0.00552737 0.00695906 0.0
0.00486439 0.00706385 0.0
0.00480979 0.00710804 0.0
0.00575988 0.00668467 0.0
0.00615105 0.00651041 0.0
0.00626424 0.00637772 0.0
0.00594992 0.00657589 0.0
0.00557643 0.00667689 0.0
0.00549136 0.00679027 0.0
0.00759505 0.00564976 0.0
0.00697939 0.00591108 0.0
0.00799302 0.00583446 0.0
0.00777165 0.00572012 0.0
0.00764083 0.00561147 0.0
0.00784556 0.00573208 0.0
0.00666594 0.00604288 0.0
0.0067575 0.00592804 0.0
0.00637424 0.00623834 0.0
0.00648502 0.00609438 0.0
0.00609234 0.00625891 0.0
0.00804964 0.00584731 0.0
0.00738396 0.00556974 0.0
0.00748182 0.00554819 0.0
0.00731011 0.00564195 0.0
0.00709602 0.00581484 0.0
0.00716358 0.00568292 0.0
0.00477199 0.0072733 0.0
0.00471719 0.00719338 0.0
0.00460304 0.00721139 0.0
0.0044821 0.00714516 0.0
0.00465554 0.00722575 0.0
0.00481684 0.00714446 0.0
0.00481535 0.00703428 0.0
0.00469726 0.00711697 0.0
0.00483445 0.00691939 0.0
0.00489017 0.00679554 0.0
0.00529086 0.00623387 0.0
0.00541247 0.00606578 0.0
0.00496838 0.00666739 0.0
0.00506861 0.0065347 0.0
0.00518315 0.00640116 0.0
0.00464051 0.00709958 0.0
0.00448749 0.00708344 0.0
0.00435883 0.00707915 0.0
0.00447044 0.00710976 0.0
0.00494547 0.00695766 0.0
0.00502448 0.00686897 0.0
0.00521479 0.00688303 0.0
0.00474661 0.00697256 0.0
0.00462172 0.00702521 0.0
0.00555832 0.0065606 0.0
0.00575867 0.00648721 0.0
0.00592756 0.00637617 0.0
0.00538351 0.00666987 0.0
0.00521031 0.00672995 0.0
0.00728278 0.00550944 0.0
0.00752645 0.00550436 0.0
0.00697567 0.00577298 0.0
0.00683973 0.00581659 0.0
0.00790121 0.00574577 0.0
0.00759323 0.00552357 0.0
0.0077148 0.00562867 0.0
0.00776298 0.00563856 0.0
0.00669064 0.00579779 0.0
0.00655526 0.00590744 0.0
0.00589433 0.00622038 0.0
0.00625284 0.0061419 0.0
0.00632055 0.005998 0.0
0.00594588 0.00603974 0.0
0.0079227 0.00576992 0.0
0.0073715 0.00544264 0.0
0.00725433 0.00537446 0.0
0.00741382 0.00539362 0.0
0.00715512 0.00543892 0.0
0.00697304 0.00562881 0.0
0.00707259 0.00552944 0.0
0.00554465 0.00589949 0.0
0.00459716 0.00715943 0.0
0.00456892 0.00708479 0.0
0.00441759 0.00711406 0.0
0.00453262 0.0071705 0.0
0.00468493 0.00702357 0.0
0.00472056 0.00692756 0.0
0.00476879 0.00683795 0.0
0.00456949 0.00700856 0.0
0.00484982 0.00673247 0.0
0.00530636 0.00627249 0.0
0.00545109 0.00613038 0.0
0.00495711 0.00662734 0.0
0.00507561 0.00651842 0.0
0.00519863 0.00642023 0.0
0.00427281 0.0070429 0.0
0.00441675 0.00700656 0.0
0.00423028 0.00701131 0.0
0.00434188 0.007036 0.0
0.00428711 0.00698431 0.0
0.00483002 0.00685444 0.0
0.00499596 0.00677501 0.0
0.00456969 0.00695052 0.0
0.00462821 0.00687714 0.0
0.00439455 0.00692836 0.0
0.00527479 0.00653864 0.0
0.00545766 0.00641998 0.0
0.00566475 0.00633547 0.0
0.00511335 0.00659733 0.0
0.00489242 0.00665398 0.0
0.00728326 0.00532189 0.0
0.00748738 0.00542069 0.0
0.00676389 0.00567985 0.0
0.00779005 0.00566717 0.0
0.00753967 0.00544566 0.0
0.00764256 0.00553415 0.0
0.00767339 0.00556581 0.0
0.00683126 0.00552708 0.0
0.00653262 0.00561461 0.0
0.00624731 0.0058606 0.0
0.00645715 0.00574735 0.0
0.00575932 0.00610057 0.0
0.00608582 0.005884 0.0
0.00579753 0.00594053 0.0
0.00777586 0.00570464 0.0
0.00713771 0.00526973 0.0
0.00730449 0.00527784 0.0
0.00719627 0.00519913 0.0
0.00734658 0.00523888 0.0
0.00703321 0.00532176 0.0
0.00694408 0.00541993 0.0
0.00568215 0.00573804 0.0
0.00582326 0.0055823 0.0
0.00596324 0.00543551 0.0
0.00559592 0.00600412 0.0
0.00444815 0.00705104 0.0
0.00446533 0.00709993 0.0
0.00435388 0.00706689 0.0
0.00445226 0.00698425 0.0
0.00459516 0.00694229 0.0
0.00464991 0.00685697 0.0
0.00473239 0.0067704 0.0
0.00447494 0.00693115 0.0
0.00485891 0.00667449 0.0
0.00535438 0.00629919 0.0
0.00550604 0.00619861 0.0
0.00496742 0.00659685 0.0
0.00510619 0.00651097 0.0
0.00525474 0.00641847 0.0
0.00421645 0.00700054 0.0
0.00414249 0.0069801 0.0
0.00415894 0.00693765 0.0
0.00423142 0.00692889 0.0
0.00409407 0.00694327 0.0
0.00400867 0.00691874 0.0
0.00471273 0.00674314 0.0
0.00445647 0.00681677 0.0
0.00426987 0.0068322 0.0
0.00410499 0.00684022 0.0
0.00556456 0.0061619 0.0
0.00515918 0.00639078 0.0
0.00496928 0.0064547 0.0
0.0053497 0.00625966 0.0
0.00478515 0.00651535 0.0
0.00469134 0.00661576 0.0
0.00744139 0.00534495 0.0
0.00667387 0.0054931 0.0
0.00724656 0.00513291 0.0
0.00766298 0.00560067 0.0
0.00756772 0.00546484 0.0
0.00747005 0.0053602 0.0
0.00756349 0.00549866 0.0
0.00737869 0.00525982 0.0
0.00673944 0.00538052 0.0
0.00650807 0.00537216 0.0
0.00634842 0.00556952 0.0
0.00616919 0.00571306 0.0
0.00545305 0.0059674 0.0
0.00592926 0.00575613 0.0
0.0056327 0.00583075 0.0
0.00760708 0.00565582 0.0
0.00711311 0.00514841 0.0
0.00701901 0.00516156 0.0
0.00728972 0.00515561 0.0
0.00717444 0.00508679 0.0
0.00708483 0.00503072 0.0
0.00720055 0.00504429 0.0
0.00689987 0.00519739 0.0
0.00679694 0.00522673 0.0
0.00609943 0.00529751 0.0
0.00574866 0.00587012 0.0
0.00589668 0.00575676 0.0
0.00603647 0.00564817 0.0
0.00566909 0.0060848 0.0
0.00432453 0.00701314 0.0
0.0043319 0.00695359 0.0
0.00452955 0.00685724 0.0
0.00461485 0.0067832 0.0
0.00473109 0.00672172 0.0
0.00436456 0.00689138 0.0
0.00441412 0.0068484 0.0
0.00485739 0.00664783 0.0
0.0054119 0.00633824 0.0
0.00555324 0.0062668 0.0
0.0049998 0.00657472 0.0
0.00515252 0.00650298 0.0
0.00531441 0.00643835 0.0
0.00414042 0.00694853 0.0
0.00408823 0.00694373 0.0
0.00395529 0.00688866 0.0
0.00402326 0.0068745 0.0
0.0039138 0.00686015 0.0
0.00384129 0.00684195 0.0
0.00450749 0.00661947 0.0
0.00447867 0.00672488 0.0
0.00422507 0.00673246 0.0
0.00407202 0.00673175 0.0
0.00395889 0.00678294 0.0
0.00523262 0.0060779 0.0
0.00467231 0.00635505 0.0
0.00498703 0.00626982 0.0
0.00447447 0.00646914 0.0
0.00714574 0.00500167 0.0
0.00751925 0.0055466 0.0
0.00688684 0.00504715 0.0
0.00747095 0.00539712 0.0
0.00738516 0.00529408 0.0
0.00744262 0.00544092 0.0
0.00730496 0.0051925 0.0
0.00648465 0.00518227 0.0
0.00664248 0.00518008 0.0
0.0050982 0.00586443 0.0
0.00631412 0.00524272 0.0
0.0061446 0.00544036 0.0
0.00598069 0.00556572 0.0
0.00531933 0.00573969 0.0
0.00561553 0.00563053 0.0
0.00741817 0.00561623 0.0
0.00695666 0.0049597 0.0
0.00713927 0.0049762 0.0
0.00722153 0.00508683 0.0
0.00695513 0.00484078 0.0
0.00703837 0.00485912 0.0
0.00710899 0.00492815 0.0
0.00674702 0.004994 0.0
0.00623141 0.0051698 0.0
0.00635618 0.00505355 0.0
0.00647052 0.00494791 0.0
0.00617507 0.00553105 0.0
0.00581414 0.00599515 0.0
0.00596589 0.00591547 0.0
0.00611985 0.00581919 0.0
0.00573147 0.00617562 0.0
0.00420383 0.00691787 0.0
0.00449862 0.00678496 0.0
0.00464635 0.00672076 0.0
0.00474882 0.0066729 0.0
0.0042433 0.00686323 0.0
0.00430126 0.00681808 0.0
0.00486105 0.00662661 0.0
0.00545423 0.00638488 0.0
0.00566713 0.00631103 0.0
0.00505132 0.00655971 0.0
0.00521612 0.00650716 0.0
0.00535426 0.00646725 0.0
0.00407009 0.00689683 0.0
0.0038109 0.00682025 0.0
0.00394133 0.00685326 0.0
0.0037857 0.00678108 0.0
0.00380699 0.00673731 0.0
0.00371958 0.00677645 0.0
0.00368634 0.00676999 0.0
0.00421295 0.00657012 0.0
0.00401971 0.00660936 0.0
0.00382881 0.00667926 0.0
0.00485909 0.00606725 0.0
0.00441707 0.00629649 0.0
0.0045541 0.00616681 0.0
0.00412444 0.00637111 0.0
0.00420271 0.00623461 0.0
0.00736584 0.00551417 0.0
0.00677906 0.0048492 0.0
0.00734853 0.00532942 0.0
0.00726988 0.00522134 0.0
0.00729141 0.00540529 0.0
0.00721758 0.00512059 0.0
0.00628119 0.00504991 0.0
0.00645867 0.00498492 0.0
0.00657508 0.0048611 0.0
0.00498589 0.00561418 0.0
0.00473434 0.00578031 0.0
0.0060853 0.00509934 0.0
0.00590703 0.00529572 0.0
0.00514904 0.00546695 0.0
0.00571588 0.00543767 0.0
0.00541541 0.00540233 0.0
0.00720708 0.00560729 0.0
0.00719511 0.00549822 0.0
0.0068363 0.00476061 0.0
0.00705275 0.00485912 0.0
0.00705936 0.00489023 0.0
0.0071402 0.00500899 0.0
0.00681431 0.00465132 0.0
0.00693078 0.00472948 0.0
0.00699785 0.00477646 0.0
0.00662239 0.00470837 0.0
0.00694803 0.00456826 0.0
0.00683231 0.00464667 0.0
0.0068964 0.00459528 0.0
0.00683116 0.00498862 0.0
0.00675856 0.00471313 0.0
0.00667654 0.00478034 0.0
0.00657856 0.00485929 0.0
0.00631063 0.00542698 0.0
0.00643398 0.00534902 0.0
0.00656014 0.00518669 0.0
0.00625699 0.00572003 0.0
0.00588949 0.00611501 0.0
0.00603924 0.00602635 0.0
0.00619611 0.00595055 0.0
0.00580783 0.00626268 0.0
0.00683431 0.00528309 0.0
0.00409899 0.00685256 0.0
0.00438136 0.00677466 0.0
0.00450392 0.0067409 0.0
0.0046349 0.00668621 0.0
0.00416119 0.00680653 0.0
0.00425535 0.00675946 0.0
0.00478934 0.0066383 0.0
0.00494713 0.00659657 0.0
0.00558443 0.00640665 0.0
0.00572344 0.00637318 0.0
0.00511628 0.00655152 0.0
0.00532517 0.00650293 0.0
0.00548006 0.00647632 0.0
0.00396549 0.00681749 0.0
0.00367218 0.00675862 0.0
0.00381184 0.00679299 0.0
0.00365349 0.00669619 0.0
0.00354685 0.00670776 0.0
0.00357767 0.00670277 0.0
0.00389605 0.00647066 0.0
0.00372172 0.00651672 0.0
0.00356809 0.00658745 0.0
0.0044721 0.00593537 0.0
0.0042649 0.00608218 0.0
0.00381905 0.00629692 0.0
0.00399958 0.00617988 0.0
0.00665223 0.00460507 0.0
0.00705577 0.0049764 0.0
0.00692415 0.00468614 0.0
0.0072518 0.00530407 0.0
0.00719101 0.00519798 0.0
0.00716358 0.00539752 0.0
0.00712553 0.00529205 0.0
0.0070968 0.00508304 0.0
0.00602991 0.00490086 0.0
0.0062399 0.0048492 0.0
0.00637317 0.00466464 0.0
0.0047727 0.00531376 0.0
0.00454112 0.00548448 0.0
0.00429966 0.00565161 0.0
0.00560262 0.00508068 0.0
0.00580284 0.0049315 0.0
0.00494128 0.00515292 0.0
0.00528432 0.00511807 0.0
0.00697809 0.00561332 0.0
0.0070026 0.00550579 0.0
0.00702497 0.00539883 0.0
0.00667524 0.00451645 0.0
0.00697427 0.00476201 0.0
0.00698309 0.0048548 0.0
0.00667221 0.00441656 0.0
0.00680285 0.00455497 0.0
0.00687245 0.00460475 0.0
0.00647757 0.00454869 0.0
0.00701456 0.00454673 0.0
0.00698714 0.00454133 0.0
0.00700695 0.00493429 0.0
0.0069575 0.00492432 0.0
0.00690208 0.00497336 0.0
0.00675646 0.00504724 0.0
0.00664676 0.00538397 0.0
0.00666676 0.00509636 0.0
0.00638017 0.00565163 0.0
0.00652144 0.00552087 0.0
0.00632183 0.00589732 0.0
0.00596212 0.00619043 0.0
0.00612974 0.00612706 0.0
0.00625574 0.00608729 0.0
0.00590865 0.0063219 0.0
0.00579667 0.00640715 0.0
0.00681691 0.00552778 0.0
0.00690708 0.00551806 0.0
0.00402878 0.00677686 0.0
0.00438469 0.00673746 0.0
0.00451811 0.00669033 0.0