# vtk DataFile Version 2.0
Vtkoutput example
ASCII

DATASET UNSTRUCTURED_GRID
POINTS 3366 float
0 0 0.0
0.002 0 0.0
0 0.002 0.0
0.004 0 0.0
0.006 0 0.0
0 0.004 0.0
0.003 0.0015 0.0
0.002 0.003 0.0
0.0045 0.0015 0.0
0 0.006 0.0
0.008 0 0.0
0.00666667 0.00133333 0.0
0.0016 0.0048 0.0
0.004 0.004 0.0
0.00533333 0.00266667 0.0
0.00133333 0.00666667 0.0
0 0.008 0.0
0.01 0 0.0
0.00875 0.0015 0.0
0.0075 0.003 0.0
0.00285714 0.00714286 0.0
0.00428571 0.00571429 0.0
0.00571429 0.00428571 0.0
0.00142857 0.00857143 0.0
0.003 0.009 0.0
0 0.01 0.0
0.012 0 0.0
0.0105 0.0015 0.0
0.009 0.003 0.0
0.008 0.00466667 0.0
0.0045 0.0075 0.0
0.00666667 0.00622222 0.0
0.0015 0.0105 0.0
0.0042 0.0098 0.0
0.0028 0.0112 0.0
0 0.012 0.0
0.014 0 0.0
0.0126 0.0014 0.0
0.0112 0.0028 0.0
0.0098 0.0042 0.0
0.00866667 0.00608333 0.0
0.016 0 0.0
0.018 0 0.0
0.00581818 0.00890909 0.0
0.00727273 0.00763636 0.0
0.0014 0.0126 0.0
0.00556154 0.0104385 0.0
0.00692308 0.0110769 0.0
0.00436364 0.0116364 0.0
0.00290909 0.0130909 0.0
0 0.014 0.0
0.0146667 0.0015 0.0
0.0130909 0.00290909 0.0
0.0116364 0.00436364 0.0
0.0101818 0.00581818 0.0
0.00933333 0.0075 0.0
0.0110769 0.00692308 0.0
0.02 0 0.0
0.0184615 0.00138462 0.0
0.0166154 0.00138462 0.0
0.016 0.00276923 0.0
0.0098 0.00908333 0.0
0.00830769 0.00969231 0.0
0.00145455 0.0145455 0.0
0.00857143 0.0114286 0.0
0.00553846 0.0124615 0.0
0.00714286 0.0128571 0.0
0.00415385 0.0138462 0.0
0.00276923 0.0152308 0.0
0 0.016 0.0
0.0138462 0.00415385 0.0
0.0153846 0.00415385 0.0
0.0124615 0.00553846 0.0
0.0128571 0.00714286 0.0
0.0114286 0.00857143 0.0
0.022 0 0.0
0.020625 0.001375 0.0
0.0190667 0.00266667 0.0
0.0176 0.004 0.0
0.0102667 0.0106667 0.0
0.00133333 0.0165 0.0
0.009625 0.012375 0.0
0.00825 0.01375 0.0
0.00571429 0.0142857 0.0
0.006875 0.015125 0.0
0.00428571 0.0157143 0.0
0.00285714 0.0171429 0.0
0 0.018 0.0
0.0165 0.0055 0.0
0.012375 0.009625 0.0
0.0130346 0.0111995 0.0
0.0146667 0.00666667 0.0
0.01375 0.00825 0.0
0.024 0 0.0
0.0227159 0.0017943 0.0
0.0207603 0.00357208 0.0
0.0184119 0.00547072 0.0
0.0195861 0.0045214 0.0
0.0116596 0.0125745 0.0
0.00146667 0.0186667 0.0
0.0101894 0.0143242 0.0
0.00884503 0.0156731 0.0
0.0055 0.0165 0.0
0.00728487 0.0172255 0.0
0.004125 0.017875 0.0
0.00317264 0.0191492 0.0
0 0.02 0.0
0.0136942 0.012774 0.0
0.0170385 0.0074795 0.0
0.0143146 0.0101988 0.0
0.0150217 0.0115862 0.0
0.0155604 0.00860459 0.0
0.026 0 0.0
0.0247066 0.00181771 0.0
0.0234318 0.0035886 0.0
0.0219651 0.00492193 0.0
0.0190383 0.00704074 0.0
0.0206818 0.0063386 0.0
0.028 0 0.0
0.0120059 0.0144316 0.0
0.001375 0.020625 0.0
0.0103177 0.0160891 0.0
0.0089429 0.0173874 0.0
0.00590987 0.0186005 0.0
0.00769474 0.019326 0.0
0.00487862 0.0196317 0.0
0.00315987 0.0213505 0.0
0 0.022 0.0
0.0144626 0.0142167 0.0
0.0157288 0.0129736 0.0
0.017577 0.00945899 0.0
0.0160723 0.0103342 0.0
0.0267016 0.00184869 0.0
0.0254132 0.00363542 0.0
0.0241477 0.0053829 0.0
0.0230477 0.0064829 0.0
0.0219477 0.0075829 0.0
0.0196647 0.00861075 0.0
0.03 0 0.0
0.0285946 0.00184857 0.0
0.032 0 0.0
0.0131964 0.0154599 0.0
0.0119302 0.016703 0.0
0.00178487 0.0227255 0.0
0.010664 0.0179461 0.0
0.00928935 0.019206 0.0
0.00878292 0.0207928 0.0
0.00631974 0.020701 0.0
0.00494474 0.022076 0.0
0.00356974 0.023451 0.0
0.0154106 0.015971 0.0
0 0.024 0.0
0.0194905 0.0100635 0.0
0.016587 0.014572 0.0
0.0177634 0.0131731 0.0
0.0181937 0.0113465 0.0
0.0272095 0.00363519 0.0
0.0261198 0.00545313 0.0
0.0248636 0.00717719 0.0
0.0236079 0.00885124 0.0
0.0209682 0.00966377 0.0
0.0305885 0.0018889 0.0
0.0291893 0.00369715 0.0
0.034 0 0.0
0.0325556 0.00183852 0.0
0.0142342 0.0173699 0.0
0.0130578 0.0187688 0.0
0.00181678 0.024725 0.0
0.0118814 0.0201678 0.0
0.0106211 0.0214132 0.0
0.00755461 0.0219765 0.0
0.00996952 0.0227765 0.0
0.00638586 0.0231452 0.0
0.00535461 0.0241765 0.0
0.00373948 0.0253164 0.0
0.0160289 0.0175223 0.0
0.0170431 0.0163638 0.0
0 0.026 0.0
0.021564 0.0113877 0.0
0.0201294 0.0119191 0.0
0.0185363 0.0151123 0.0
0.0197612 0.013369 0.0
0.0281047 0.00554608 0.0
0.0268264 0.00727085 0.0
0.0255795 0.00897149 0.0
0.0245027 0.010356 0.0
0.0232353 0.0112465 0.0
0.0311769 0.00377779 0.0
0.0297839 0.00554572 0.0
0.036 0 0.0
0.0345558 0.00189458 0.0
0.0331111 0.00367705 0.0
0.0148525 0.0189213 0.0
0.0136761 0.0203202 0.0
0.0018169 0.0266232 0.0
0.0124279 0.0220553 0.0
0.0116832 0.0234114 0.0
0.00851447 0.023527 0.0
0.0100249 0.0244824 0.0
0.00713947 0.024902 0.0
0.00560922 0.0259746 0.0
0.00363381 0.0272465 0.0
0.0166472 0.0190737 0.0
0.0186756 0.0167566 0.0
0.0176614 0.0179152 0.0
0 0.028 0.0
0.0217315 0.0135622 0.0
0.020374 0.0149198 0.0
0.0288063 0.00739478 0.0
0.0238859 0.0130305 0.0
0.0275304 0.00908188 0.0
0.02627 0.0107022 0.0
0.0250957 0.0118343 0.0
0.0317654 0.00566669 0.0
0.0306639 0.00717827 0.0
0.038 0 0.0
0.036437 0.00189446 0.0
0.0351116 0.00378916 0.0
0.0336667 0.00551557 0.0
0.04 0 0.0
0.042 0 0.0
0.0154708 0.0204726 0.0
0.0150107 0.0219064 0.0
0.0203081 0.0171495 0.0
0.00185809 0.028622 0.0
0.0129744 0.0239429 0.0
0.0117782 0.0251528 0.0
0.00892434 0.0256274 0.0
0.0106459 0.0263272 0.0
0.00747896 0.0266328 0.0
0.00545071 0.0278697 0.0
0.00371617 0.0292441 0.0
0.0172655 0.0206251 0.0
0.0187868 0.0188873 0.0
0 0.03 0.0
0.0233295 0.0152096 0.0
0.0218918 0.0155656 0.0
0.0248072 0.0153545 0.0
0.0290216 0.00908131 0.0
0.0256721 0.0139486 0.0
0.0282077 0.0108242 0.0
0.0269562 0.012422 0.0
0.0323539 0.00755558 0.0
0.031321 0.00894883 0.0
0.0384341 0.00196508 0.0
0.036874 0.00378891 0.0
0.0354029 0.00582162 0.0
0.0342222 0.0073541 0.0
0.0403083 0.00196521 0.0
0.044 0 0.0
0.0422827 0.00193267 0.0
0.0165753 0.0227758 0.0
0.0146963 0.0238436 0.0
0.0151517 0.0254166 0.0
0.0205815 0.0190397 0.0
0.0220521 0.0175689 0.0
0.00185809 0.0305152 0.0
0.013521 0.0258304 0.0
0.0123567 0.0270226 0.0
0.00907727 0.0276224 0.0
0.0108187 0.0283173 0.0
0.00726761 0.028493 0.0
0.00557426 0.0298661 0.0
0.00371617 0.0310303 0.0
0.0186001 0.0222113 0.0
0.0190602 0.0207775 0.0
0.01814 0.0236451 0.0
0 0.032 0.0
0.046 0 0.0
0.0249274 0.0168571 0.0
0.0234898 0.017213 0.0
0.0262849 0.0154995 0.0
0.0296012 0.0108235 0.0
0.0276424 0.0141418 0.0
0.0285685 0.0124938 0.0
0.0329288 0.00940089 0.0
0.0315352 0.01099 0.0
0.0388681 0.00393017 0.0
0.037311 0.00568337 0.0
0.0362232 0.00757832 0.0
0.0343688 0.00940089 0.0
0.0406167 0.00393042 0.0
0.044157 0.00193254 0.0
0.0425655 0.00386533 0.0
0.0167825 0.0250027 0.0
0.0156298 0.0268736 0.0
0.0208549 0.0209299 0.0
0.0222124 0.0195723 0.0
0.0240502 0.0194186 0.0
0.0187543 0.0251849 0.0
0.00195601 0.0324298 0.0
0.0140675 0.027718 0.0
0.0129261 0.0285503 0.0
0.00907784 0.029114 0.0
0.0108193 0.0297113 0.0
0.00743234 0.0304882 0.0
0.00557426 0.0315455 0.0
0.00382097 0.0330247 0.0
0.0197719 0.0229755 0.0
0.0203166 0.0243406 0.0
0 0.034 0.0
0.0461338 0.00190849 0.0
0.048 0 0.0
0.0269024 0.0170473 0.0
0.0254763 0.0182329 0.0
0.0283286 0.0158617 0.0
0.0301809 0.0125656 0.0
0.0295622 0.0143087 0.0
0.0331801 0.0111007 0.0
0.0321051 0.0127619 0.0
0.0389548 0.00568374 0.0
0.037748 0.00757783 0.0
0.0367608 0.00941077 0.0
0.034825 0.0112114 0.0
0.040925 0.00589564 0.0
0.0443139 0.00386508 0.0
0.0462675 0.00381698 0.0
0.0428482 0.005798 0.0
0.0173369 0.0276402 0.0
0.0186037 0.0269376 0.0
0.0160701 0.0283428 0.0
0.022148 0.0217909 0.0
0.0237457 0.0210352 0.0
0.025308 0.0201909 0.0
0.019923 0.0265677 0.0
0.00191061 0.0343999 0.0
0.00382122 0.0347997 0.0
0.0147183 0.0291812 0.0
0.0125608 0.0303087 0.0
0.00926559 0.0311019 0.0
0.0110466 0.0316981 0.0
0.00743234 0.0320606 0.0
0.00573145 0.033537 0.0
0.0218789 0.0234962 0.0
0.0213878 0.0254724 0.0
0 0.036 0.0
0.0481192 0.00201156 0.0
0.0500973 0.0020044 0.0
0.05 0 0.0
0.0284076 0.0174197 0.0
0.0270277 0.0194525 0.0
0.0302395 0.016051 0.0
0.0311186 0.0144212 0.0
0.0326751 0.0145337 0.0
0.0340569 0.0130219 0.0
0.0392731 0.00757832 0.0
0.0381707 0.00941018 0.0
0.036771 0.0114991 0.0
0.03583 0.0126746 0.0
0.041233 0.00785889 0.0
0.0482384 0.00402311 0.0
0.0447786 0.00572585 0.0
0.0464013 0.00572547 0.0
0.0431307 0.00772873 0.0
0.0184532 0.0286903 0.0
0.0165104 0.029812 0.0
0.0201185 0.0286981 0.0
0.0234411 0.0226519 0.0
0.0250034 0.0218076 0.0
0.0265657 0.0209632 0.0
0.0216124 0.027669 0.0
0.00561647 0.0354577 0.0
0.00187228 0.0363734 0.0
0.00374456 0.0367468 0.0
0.0143023 0.0309061 0.0
0.0131695 0.0317796 0.0
0.0160438 0.0315035 0.0
0.00926559 0.0325689 0.0
0.0110466 0.0330627 0.0
0.00782403 0.0337192 0.0
0.022459 0.0266042 0.0
0.0230065 0.0248792 0.0
0 0.038 0.0
0.0499712 0.00402285 0.0
0.0519637 0.00200453 0.0
0.052 0 0.0
0.0299128 0.0177921 0.0
0.028579 0.020672 0.0
0.0296902 0.0192745 0.0
0.0319199 0.0177921 0.0
0.0321882 0.0163066 0.0
0.0338744 0.0158292 0.0
0.0351184 0.015133 0.0
0.0363625 0.0144369 0.0
0.0385896 0.011226 0.0
0.0395809 0.00941077 0.0
0.0372192 0.0133591 0.0
0.0390085 0.0130419 0.0
0.0415285 0.00974254 0.0
0.0483576 0.00603467 0.0
0.0450378 0.00763256 0.0
0.0469515 0.00757056 0.0
0.0434017 0.00958119 0.0
0.0447782 0.00958059 0.0
0.0183026 0.0304429 0.0
0.0175645 0.031636 0.0
0.0208006 0.0304547 0.0
0.0222603 0.0293332 0.0
0.0251244 0.0233361 0.0
0.0274678 0.0220696 0.0
0.0263141 0.0227327 0.0
0.0235302 0.027736 0.0
0.00861175 0.0350413 0.0
0.00748863 0.0359436 0.0
0.00561684 0.0371203 0.0
0.00197617 0.0382754 0.0
0.00388716 0.0387387 0.0
0.014998 0.0323044 0.0
0.0128275 0.0335565 0.0
0.0168264 0.0328292 0.0
0.0116097 0.034551 0.0
0.00973488 0.034139 0.0
0.0241342 0.0262622 0.0
0.0252454 0.0248646 0.0
0 0.04 0.0
0.0510539 0.00502388 0.0
0.0499568 0.00603428 0.0
0.0521511 0.00401349 0.0
0.054 0 0.0
0.0539419 0.00200687 0.0
0.0310859 0.0193774 0.0
0.0289895 0.0222985 0.0
0.0303544 0.0209391 0.0
0.0324816 0.0194804 0.0
0.033491 0.0184984 0.0
0.0345005 0.0175163 0.0
0.036895 0.0161991 0.0
0.0381612 0.0155284 0.0
0.0405679 0.0116255 0.0
0.0407735 0.0141838 0.0
0.0394273 0.0148577 0.0
0.0424166 0.0114337 0.0
0.0484756 0.00802469 0.0
0.0471796 0.0093851 0.0
0.0449286 0.0114329 0.0
0.0467913 0.0112907 0.0
0.0194717 0.0317704 0.0
0.0209604 0.0318498 0.0
0.018629 0.0333465 0.0
[...]
POINT_DATA 3366
VECTORS u float
2.73033e-33 3.27631e-33 0.0
0.000200984 6.52469e-33 0.0
5.4398e-33 0.00230408 0.0
0.000384745 6.47425e-33 0.0
0.000536097 6.3264e-33 0.0
5.36717e-33 0.00463595 0.0
0.000291273 0.00174524 0.0
0.000166113 0.00347631 0.0
0.00041133 0.00177955 0.0
5.24737e-33 0.00700177 0.0
0.000628657 6.16906e-33 0.0
0.000558184 0.00163592 0.0
9.93529e-05 0.00558201 0.0
0.000278475 0.00472461 0.0
0.000429048 0.00319886 0.0
1.52616e-05 0.00782503 0.0
5.04089e-33 0.00944427 0.0
0.000648378 5.93494e-33 0.0
0.000622881 0.00192067 0.0
0.00051197 0.00374652 0.0
1.8483e-05 0.0084499 0.0
0.000157004 0.00679656 0.0
0.000345827 0.00518905 0.0
5.03585e-05 0.0101593 0.0
0.000163202 0.0107777 0.0
4.80803e-33 0.0119563 0.0
0.000563689 5.61193e-33 0.0
0.000614025 0.00202602 0.0
0.000529047 0.00387732 0.0
0.000341792 0.00590351 0.0
3.47819e-05 0.0090224 0.0
0.000125727 0.00770073 0.0
0.000172632 0.0126202 0.0
0.00036586 0.011924 0.0
0.00041547 0.0136231 0.0
4.48902e-33 0.01459 0.0
0.000324016 5.24973e-33 0.0
0.000480296 0.00203322 0.0
0.00048302 0.00386917 0.0
0.000381814 0.00556082 0.0
0.000111314 0.00784113 0.0
9.1037e-05 4.84896e-33 0.0
0.000750027 4.3055e-33 0.0
0.000323282 0.0109933 0.0
0.00013695 0.00959774 0.0
0.000310094 0.0154366 0.0
0.000663529 0.012981 0.0
0.00100913 0.0140952 0.0
0.000754413 0.0143944 0.0
0.000730398 0.0162209 0.0
4.10654e-33 0.0173895 0.0
0.000188754 0.00235406 0.0
0.00029119 0.00431228 0.0
0.000247642 0.00613359 0.0
8.78189e-05 0.00781323 0.0
0.000237376 0.00986767 0.0
0.000250068 0.0095868 0.0
0.00167142 3.7539e-33 0.0
0.000958204 0.0026104 0.0
0.000291861 0.00238248 0.0
0.000226453 0.00461906 0.0
0.000764668 0.0121788 0.0
0.000772585 0.0125514 0.0
0.000499957 0.0182066 0.0
0.0014153 0.0150319 0.0
0.00118508 0.0157108 0.0
0.00169326 0.016632 0.0
0.00122096 0.017442 0.0
0.00107097 0.0193118 0.0
3.67607e-33 0.0203752 0.0
1.07366e-05 0.00632685 0.0
0.000300223 0.00670321 0.0
5.85592e-05 0.008015 0.0
0.000533989 0.0105061 0.0
0.000775782 0.0120163 0.0
0.00288536 2.95107e-33 0.0
0.00204683 0.00285089 0.0
0.00129402 0.0051747 0.0
0.00085048 0.00718992 0.0
0.00139742 0.0145197 0.0
0.000648286 0.0211802 0.0
0.00206679 0.0167446 0.0
0.00237695 0.0182475 0.0
0.00183792 0.0183573 0.0
0.00258195 0.0198836 0.0
0.00180147 0.0202312 0.0
0.00153946 0.0222851 0.0
3.15805e-33 0.0235921 0.0
0.000860491 0.00933911 0.0
0.00133503 0.0139436 0.0
0.00223229 0.0166004 0.0
0.00069049 0.0104405 0.0
0.00103745 0.0125068 0.0
0.00447065 2.25867e-33 0.0
0.00342037 0.00418847 0.0
0.00226706 0.00751029 0.0
0.0014641 0.0101998 0.0
0.00180403 0.00893689 0.0
0.00266228 0.0179376 0.0
0.000967172 0.0247517 0.0
0.00328021 0.0198577 0.0
0.00364543 0.021351 0.0
0.00262474 0.021677 0.0
0.00385624 0.0232715 0.0
0.00246621 0.0236322 0.0
0.00224254 0.0257147 0.0
2.56196e-33 0.0270645 0.0
0.00334221 0.0194244 0.0
0.00162632 0.0129785 0.0
0.0019972 0.015811 0.0
0.00298845 0.0184587 0.0
0.00158966 0.0140186 0.0
0.00648046 1.4494e-33 0.0
0.00513152 0.00471033 0.0
0.00415254 0.00863427 0.0
0.00320834 0.0109614 0.0
0.00222416 0.0135055 0.0
0.00275238 0.0131601 0.0
0.00898035 5.40355e-34 0.0
0.00393636 0.0209318 0.0
0.00119465 0.0282294 0.0
0.00452991 0.0226273 0.0
0.00483049 0.0241216 0.0
0.00385338 0.0251902 0.0
0.00548524 0.026906 0.0
0.00368756 0.0267553 0.0
0.0029767 0.0297286 0.0
1.87418e-33 0.0308838 0.0
0.00460236 0.0222228 0.0
0.0040949 0.0212209 0.0
0.0025794 0.0167966 0.0
0.00253235 0.0171681 0.0
0.00730027 0.00533773 0.0
0.00596699 0.0097744 0.0
0.00502483 0.0134328 0.0
0.00436217 0.0152318 0.0
0.00389661 0.0167674 0.0
0.00307122 0.0169051 0.0
0.0119994 4.54279e-34 0.0
0.00980584 0.00590576 0.0
0.0155932 1.46157e-33 0.0
0.00516683 0.0233019 0.0
0.00569105 0.0244624 0.0
0.0019662 0.0323647 0.0
0.00615365 0.0257815 0.0
0.00641284 0.0272916 0.0
0.00749681 0.0299087 0.0
0.00542984 0.0289749 0.0
0.00500673 0.0313587 0.0
0.0042165 0.0339835 0.0
0.00649425 0.0258329 0.0
1.20563e-33 0.0350457 0.0
0.00366288 0.0194767 0.0
0.00565517 0.0246063 0.0
0.00497621 0.0233662 0.0
0.00383791 0.020615 0.0
0.00801405 0.0107688 0.0
0.00695958 0.015165 0.0
0.00604748 0.0185552 0.0
0.00552172 0.0212844 0.0
0.00414669 0.0201448 0.0
0.0129759 0.00668391 0.0
0.0107552 0.0121531 0.0
0.0198075 2.54703e-33 0.0
0.0166669 0.00716836 0.0
0.00739348 0.0271479 0.0
0.0082908 0.0285948 0.0
0.0024422 0.0366568 0.0
0.00909507 0.0302449 0.0
0.00957891 0.0318041 0.0
0.00751684 0.031705 0.0
0.0105647 0.0341046 0.0
0.00721867 0.0337816 0.0
0.00676665 0.0357717 0.0
0.0053048 0.0381145 0.0
0.00839353 0.0289655 0.0
0.00754792 0.0280744 0.0
4.41123e-34 0.0396062 0.0
0.00553073 0.0243263 0.0
0.00507756 0.0236499 0.0
0.00691951 0.0275615 0.0
0.00591834 0.0259275 0.0
0.00934525 0.0171455 0.0
0.00809192 0.0209023 0.0
0.00725844 0.0239513 0.0
0.00684169 0.0259423 0.0
0.00633731 0.0261467 0.0
0.0140462 0.0137373 0.0
0.0117428 0.0187562 0.0
0.0246791 3.54656e-33 0.0
0.021047 0.00812599 0.0
0.0178054 0.0147076 0.0
0.00944985 0.0302453 0.0
0.0104995 0.0317055 0.0
0.00291298 0.0411026 0.0
0.0118637 0.0339832 0.0
0.0130342 0.0361307 0.0
0.00988672 0.0350734 0.0
0.0126976 0.0375551 0.0
0.0096105 0.0376249 0.0
0.00840831 0.039839 0.0
0.00612911 0.0427312 0.0
0.010601 0.0322175 0.0
0.00869751 0.0306198 0.0
0.00963337 0.0314155 0.0
4.25413e-34 0.0446028 0.0
0.00700104 0.0288623 0.0
0.00753989 0.0295728 0.0
0.0106242 0.0235447 0.0
0.00798131 0.0310511 0.0
0.00933842 0.026947 0.0
0.00855486 0.029432 0.0
0.00806285 0.0303344 0.0
0.0151699 0.0211543 0.0
0.0133113 0.0253142 0.0
0.0301667 4.61024e-33 0.0
0.0257589 0.00879627 0.0
0.0223176 0.0166126 0.0
0.0189343 0.0225763 0.0
0.0362834 5.55441e-33 0.0
0.0429883 6.51888e-33 0.0
0.0118494 0.0334625 0.0
0.0137432 0.0356101 0.0
0.00992667 0.0335627 0.0
0.00353623 0.0462355 0.0
0.015093 0.0379001 0.0
0.0156815 0.0397212 0.0
0.0126961 0.039708 0.0
0.0159688 0.0418135 0.0
0.0117953 0.0416329 0.0
0.00962494 0.0444452 0.0
0.00738016 0.0479671 0.0
0.0132029 0.0356067 0.0
0.0114265 0.0344619 0.0
1.22428e-33 0.0501017 0.0
0.00941044 0.0347744 0.0
0.00895186 0.0330604 0.0
0.0104808 0.0378396 0.0
0.0112391 0.0290862 0.0
0.00995744 0.0363579 0.0
0.0106601 0.0329854 0.0
0.0100234 0.0351063 0.0
0.0163584 0.0289188 0.0
0.014668 0.0323711 0.0
0.0313762 0.00985406 0.0
0.0268175 0.017907 0.0
0.0228847 0.0258106 0.0
0.0201763 0.0307259 0.0
0.0372153 0.0105201 0.0
0.0502814 7.2308e-33 0.0
0.0439496 0.0110046 0.0
0.0163185 0.0386352 0.0
0.0165669 0.0389999 0.0
0.0198492 0.0424473 0.0
0.0125591 0.037412 0.0
0.0113329 0.0371303 0.0
0.00405009 0.0515497 0.0
0.0188629 0.0420803 0.0
0.0194538 0.04406 0.0
0.0154294 0.044359 0.0
0.0192045 0.0465613 0.0
0.0133993 0.046233 0.0
0.0115329 0.0497726 0.0
0.00837736 0.0530809 0.0
0.0167684 0.0400515 0.0
0.0144812 0.0381438 0.0
0.0191516 0.0420385 0.0
2.11896e-33 0.0560791 0.0
0.0580262 7.89949e-33 0.0
0.0121723 0.0413711 0.0
0.0115956 0.0391361 0.0
0.0117082 0.0413442 0.0
0.012423 0.0355535 0.0
0.0118291 0.0409829 0.0
0.0117935 0.0384822 0.0
0.017543 0.0368204 0.0
0.0153801 0.0398126 0.0
0.0325426 0.0199927 0.0
0.0278732 0.0273106 0.0
0.0247742 0.0347242 0.0
0.0205068 0.0393906 0.0
0.0380733 0.0212868 0.0
0.0508331 0.0115099 0.0
0.0447816 0.0221667 0.0
0.0206569 0.0430496 0.0
0.0234716 0.0457822 0.0
0.0157718 0.041289 0.0
0.0142247 0.0411931 0.0
0.01507 0.044695 0.0
0.0229337 0.0457288 0.0
0.00485492 0.0573817 0.0
0.0231293 0.0465593 0.0
0.023024 0.0479168 0.0
0.0174253 0.0481043 0.0
0.0215576 0.0500514 0.0
0.015968 0.0516103 0.0
0.0129774 0.0546505 0.0
0.00981209 0.0592501 0.0
0.0189895 0.0430879 0.0
0.0222791 0.0464261 0.0
2.98898e-33 0.0625643 0.0
0.0585331 0.0118269 0.0
0.0661869 8.45941e-33 0.0
0.013744 0.0463996 0.0
0.0141777 0.0455657 0.0
0.0137879 0.0470797 0.0
0.01386 0.0421679 0.0
0.0139484 0.0459417 0.0
0.0182128 0.0437087 0.0
0.0168152 0.0471541 0.0
0.0326249 0.0290014 0.0
0.0287917 0.036958 0.0
0.0260953 0.0438385 0.0
0.0215217 0.0478082 0.0
0.0388491 0.032217 0.0
0.0512525 0.0231335 0.0
0.0589433 0.0237442 0.0
0.0455304 0.0334995 0.0
0.0271732 0.0489921 0.0
0.0269368 0.0488878 0.0
0.0272549 0.049281 0.0
0.0180723 0.0451139 0.0
0.0175615 0.0471244 0.0
0.0170272 0.0491807 0.0
0.0272905 0.0499951 0.0
0.00532884 0.0638919 0.0
0.0108989 0.0651853 0.0
0.0272082 0.0503246 0.0
0.025878 0.0521448 0.0
0.0206051 0.0535483 0.0
0.0253212 0.0555628 0.0
0.0178389 0.0561886 0.0
0.015106 0.06092 0.0
0.0214241 0.0476588 0.0
0.0257826 0.0503063 0.0
3.83406e-33 0.0695813 0.0
0.0666609 0.0128904 0.0
0.0751383 0.0131046 0.0
0.0746919 8.67069e-33 0.0
0.0153904 0.0513666 0.0
0.016939 0.0521915 0.0
0.0159404 0.0527462 0.0
0.0159441 0.0502552 0.0
0.0183562 0.0548402 0.0
0.0203052 0.0530938 0.0
0.0332531 0.039139 0.0
0.0297681 0.0465525 0.0
0.0261439 0.0533006 0.0
0.0238119 0.0563038 0.0
0.0394683 0.0433471 0.0
0.0670512 0.0258235 0.0
0.0527286 0.0346409 0.0
0.0591631 0.0357983 0.0
0.0460821 0.0449991 0.0
0.0312868 0.0523978 0.0
0.0315987 0.0529286 0.0
0.0334106 0.0544239 0.0
0.0205162 0.0494187 0.0
0.019712 0.051613 0.0
0.0191367 0.0541172 0.0
0.0319401 0.0548675 0.0
0.0165522 0.0673838 0.0
0.00578393 0.0709092 0.0
0.0117701 0.0722181 0.0
0.0303449 0.0544139 0.0
0.0299713 0.0563311 0.0
0.0350676 0.0569232 0.0
0.0228222 0.0578242 0.0
0.027873 0.0595168 0.0
0.0207898 0.0614109 0.0
0.0296941 0.0545125 0.0
0.0254629 0.0524746 0.0
4.64506e-33 0.0771199 0.0
0.0743497 0.0262861 0.0
0.0832096 0.0131869 0.0
0.0834056 8.89122e-33 0.0
0.0172939 0.0566346 0.0
0.0199859 0.0596716 0.0
0.0188416 0.0598231 0.0
0.0195213 0.0631762 0.0
0.0186802 0.0593451 0.0
0.0210687 0.0631458 0.0
0.0229347 0.0641896 0.0
0.0253732 0.0653025 0.0
0.0309129 0.0562422 0.0
0.0338814 0.0491312 0.0
0.0271594 0.0629704 0.0
0.0319859 0.0662818 0.0
0.0401216 0.0542267 0.0
0.0672223 0.0388415 0.0
0.053399 0.046508 0.0
0.0610729 0.0478928 0.0
0.0467895 0.0562403 0.0
0.0518915 0.0582119 0.0
0.036081 0.0560548 0.0
0.0382187 0.0581836 0.0
0.0397595 0.0591714 0.0
0.0378944 0.0593642 0.0
0.0231065 0.0548224 0.0
0.021774 0.0591481 0.0
0.0223601 0.0570827 0.0
0.0339955 0.0589491 0.0
0.024558 0.0657643 0.0
0.0225186 0.0690166 0.0
0.0179776 0.0734445 0.0
0.00667161 0.0781502 0.0
0.0133679 0.0798629 0.0
0.0350244 0.0584982 0.0
0.0331086 0.0613359 0.0
0.0401973 0.0608165 0.0
0.0320384 0.0643224 0.0
0.0263441 0.0627654 0.0
0.0299497 0.0575768 0.0
0.0268634 0.0579896 0.0
5.37398e-33 0.0851354 0.0
0.0788745 0.0329972 0.0
0.0739931 0.0394257 0.0
0.0838173 0.0264394 0.0
0.0922035 8.74291e-33 0.0
0.0918429 0.0132073 0.0
0.0202708 0.0649432 0.0
0.0232325 0.0648013 0.0
0.0219431 0.0664162 0.0
0.0220016 0.0703682 0.0
0.0222528 0.0710096 0.0
0.0229796 0.0712553 0.0
0.0270125 0.0747031 0.0
0.0298507 0.0758301 0.0
0.0367013 0.0627324 0.0
0.0370115 0.0767876 0.0
0.0331255 0.0764064 0.0
0.04285 0.065392 0.0
0.0672331 0.0518179 0.0
0.061448 0.0596346 0.0
0.0518895 0.0697772 0.0
0.059196 0.0713984 0.0
0.0419565 0.0604212 0.0
0.0446156 0.0625253 0.0
0.0454525 0.0633895 0.0
0.0442537 0.0633162 0.0
0.0413468 0.0634031 0.0
0.0494124 0.0665613 0.0
0.0252592 0.0628626 0.0
0.0352425 0.0653858 0.0
0.0383094 0.0640733 0.0
0.0286947 0.0706198 0.0
0.0244054 0.0746815 0.0
0.0203295 0.0811586 0.0
0.00707267 0.0861511 0.0
0.0142985 0.0870541 0.0
0.0384067 0.0633078 0.0
0.0377844 0.0657293 0.0
0.0439624 0.0654042 0.0
0.0496063 0.0678045 0.0
0.034599 0.0702779 0.0
0.0307649 0.0641736 0.0
0.0280308 0.07225 0.0
6.04177e-33 0.0936031 0.0
0.0837809 0.0397072 0.0
0.0786101 0.0461588 0.0
0.0734487 0.0525163 0.0
0.0913569 0.0263948 0.0
0.0907728 0.0396615 0.0
0.100891 8.4284e-33 0.0
0.100463 0.012328 0.0
0.0988455 0.0261459 0.0
0.109411 8.02642e-33 0.0
0.117638 7.37382e-33 0.0
0.125528 6.64623e-33 0.0
0.133032 5.82941e-33 0.0
0.14009 4.87894e-33 0.0
0.146721 3.96254e-33 0.0
0.0240794 0.0741435 0.0
0.025475 0.0732288 0.0
0.0247734 0.0783417 0.0
0.0253656 0.0796263 0.0
0.0275253 0.082838 0.0
0.0300102 0.0827338 0.0
0.0342742 0.0866305 0.0
0.041294 0.0764552 0.0
0.0387402 0.0849587 0.0
0.0385583 0.0927994 0.0
0.0464012 0.0791493 0.0
0.0519638 0.0814865 0.0
0.0670565 0.0645059 0.0
0.0727794 0.0652994 0.0
0.059133 0.0832788 0.0
0.0654325 0.0810786 0.0
0.0497979 0.065913 0.0
0.0523696 0.0680372 0.0
0.0489991 0.0681767 0.0
0.0467188 0.0697306 0.0
0.0550114 0.0699297 0.0
0.0287412 0.0670297 0.0
0.0397881 0.0686024 0.0
0.0384482 0.0724774 0.0
0.0453176 0.0718516 0.0
0.0307523 0.0757967 0.0
0.0275258 0.080832 0.0
0.0216513 0.0878563 0.0
0.00744865 0.0945863 0.0
0.0150003 0.0954381 0.0
0.0443378 0.0695006 0.0
0.0408069 0.0716798 0.0
0.0506421 0.0715638 0.0
0.0554591 0.0717353 0.0
0.0370778 0.0769708 0.0
0.0334699 0.0728653 0.0
0.0320615 0.077473 0.0
0.0296737 0.080097 0.0
6.58186e-33 0.102483 0.0
0.152886 2.98502e-33 0.0
0.158594 1.98812e-33 0.0
0.0836552 0.0529305 0.0
0.0809385 0.0656553 0.0
0.0899873 0.0528067 0.0
0.0992879 0.0371149 0.0
0.0984378 0.0495347 0.0
0.108445 0.0120926 0.0
0.107386 0.0242397 0.0
0.107397 0.0366801 0.0
0.116617 0.0118338 0.0
0.124467 0.0115701 0.0
0.131557 0.0110783 0.0
0.138694 0.0101042 0.0
0.144994 0.00958214 0.0
0.151163 0.00921612 0.0
0.0275335 0.0816021 0.0
0.0278651 0.0870106 0.0
0.0297927 0.0918783 0.0
0.031433 0.0930637 0.0
0.0335809 0.0934515 0.0
0.0381669 0.100018 0.0
0.0446694 0.0885121 0.0
0.0428554 0.0990219 0.0
0.0497834 0.0913546 0.0
0.055003 0.0935965 0.0
0.062331 0.0957842 0.0
0.0719299 0.0781945 0.0
0.0800109 0.0785977 0.0
0.0666466 0.0901953 0.0
0.058225 0.0715261 0.0
0.0613009 0.0744243 0.0
0.0512994 0.0751723 0.0
0.054993 0.073061 0.0
0.0640413 0.0756325 0.0
0.0603071 0.0747834 0.0
0.0391395 0.0790005 0.0
0.0448017 0.0782117 0.0
0.034534 0.0815197 0.0
0.0290931 0.0885753 0.0
0.0226468 0.0961679 0.0
0.00777017 0.103412 0.0
0.0156201 0.104199 0.0
0.043589 0.0782617 0.0
0.0478072 0.0754186 0.0
0.0544823 0.0774034 0.0
0.0596981 0.0767531 0.0
0.0647589 0.0777864 0.0
0.0417796 0.0844955 0.0
0.0366869 0.082934 0.0
0.0347173 0.0873036 0.0
0.0319912 0.0895632 0.0
6.98087e-33 0.111708 0.0
0.16388 1.02091e-33 0.0
0.168807 1.21259e-34 0.0
0.173377 8.10496e-34 0.0
0.177631 1.64323e-33 0.0
0.156976 0.00837725 0.0
0.162258 0.00807501 0.0
0.0891067 0.065613 0.0
0.0878301 0.0849816 0.0
0.0948762 0.0651862 0.0
0.106484 0.0489915 0.0
0.105454 0.0609098 0.0
0.115463 0.0237796 0.0
0.114126 0.035821 0.0
0.112636 0.0479129 0.0
0.12243 0.023005 0.0
0.129827 0.0223343 0.0
0.137005 0.0204026 0.0
0.143556 0.0197647 0.0
0.149109 0.0187084 0.0
0.154979 0.0170215 0.0
0.0313671 0.0952471 0.0
0.0325643 0.100786 0.0
0.0340448 0.102441 0.0
0.0396215 0.110325 0.0
0.0439928 0.110234 0.0
0.0496697 0.114043 0.0
0.048822 0.102586 0.0
0.0589597 0.107249 0.0
0.0663433 0.103058 0.0
0.082291 0.0918045 0.0
0.0744191 0.0912976 0.0
0.0721421 0.104123 0.0
0.0672626 0.0775018 0.0
0.0520836 0.0843186 0.0
0.0562626 0.0817929 0.0
0.0601773 0.0795528 0.0
0.0658741 0.0802206 0.0
0.0725184 0.0818377 0.0
0.0440423 0.0849965 0.0
0.0365023 0.0912146 0.0
0.0304053 0.0968375 0.0
0.0722436 0.0817096 0.0
0.0235576 0.104861 0.0
0.00850855 0.112619 0.0
0.0170688 0.11336 0.0
0.0486293 0.0832406 0.0
0.055675 0.0819417 0.0
0.0635929 0.0824549 0.0
0.0677624 0.0816013 0.0
0.0511698 0.0904917 0.0
0.0497921 0.0916133 0.0
0.0440059 0.0922856 0.0
0.0449331 0.0932828 0.0
0.0408209 0.0947502 0.0
0.0367739 0.0947535 0.0
0.0360688 0.0994381 0.0
7.23479e-33 0.121193 0.0
0.036 0.103923 0.0
0.181611 2.47578e-33 0.0
0.185348 3.27516e-33 0.0
0.188827 4.09798e-33 0.0
0.167094 0.00720107 0.0
0.171496 0.00673341 0.0
0.175853 0.00618031 0.0
0.18035 0.00459561 0.0
0.160198 0.0164326 0.0
0.164928 0.0146585 0.0
0.0932899 0.0780836 0.0
0.0915387 0.091095 0.0
0.101754 0.0726258 0.0
0.111113 0.0596227 0.0
0.109226 0.071436 0.0
0.120584 0.0347136 0.0
0.120159 0.0468925 0.0
0.116564 0.0581167 0.0
0.127912 0.0337814 0.0
0.13515 0.0308895 0.0
0.14073 0.0295177 0.0
0.146707 0.0284301 0.0
0.152654 0.0259131 0.0
0.157197 0.0245051 0.0
0.0362116 0.109901 0.0
0.037021 0.112447 0.0
0.0402004 0.117839 0.0
0.043466 0.119149 0.0
0.048608 0.123377 0.0
0.0529733 0.127823 0.0
0.0559809 0.117072 0.0
0.0628525 0.119836 0.0
0.069398 0.116758 0.0
0.0856857 0.104525 0.0
0.0780046 0.104541 0.0
0.0750852 0.117537 0.0
0.0762439 0.0834384 0.0
0.0553276 0.0919637 0.0
0.0602978 0.0884647 0.0
0.0693617 0.0862211 0.0
0.0655439 0.0873174 0.0
0.076794 0.0903109 0.0
0.0784464 0.0875339 0.0
0.0826833 0.0883764 0.0
0.0380116 0.0972866 0.0
0.0315478 0.105426 0.0
0.0814709 0.0875841 0.0
0.0769565 0.0881462 0.0
0.058842 0.100349 0.0
0.0242605 0.112465 0.0
0.00872774 0.121518 0.0
0.0174796 0.12166 0.0
0.0564524 0.0869059 0.0
0.0589775 0.0927194 0.0
0.0651275 0.0869969 0.0
0.0699426 0.0864064 0.0
0.0533317 0.0982213 0.0
0.0530714 0.101672 0.0
0.0471445 0.103551 0.0
0.0478604 0.10282 0.0
0.0443424 0.108991 0.0
0.0408912 0.10992 0.0
7.40431e-33 0.130868 0.0
0.0406733 0.116058 0.0
0.19516 5.71866e-33 0.0
0.192104 4.9031e-33 0.0
0.184063 0.00416337 0.0
0.187717 0.00405468 0.0
0.190946 0.00362708 0.0
0.169381 0.01415 0.0
0.173566 0.0126594 0.0
0.18259 0.00874366 0.0
0.178252 0.0105821 0.0
0.16233 0.0223646 0.0
0.166678 0.0216371 0.0
0.0939462 0.0979832 0.0
0.100033 0.0847119 0.0
0.107523 0.0833288 0.0
0.115335 0.0698691 0.0
0.125844 0.0453806 0.0
0.123578 0.0566115 0.0
0.121184 0.0679879 0.0
0.13307 0.0415418 0.0
0.138212 0.0397745 0.0
0.144038 0.0383844 0.0
0.150028 0.0350304 0.0
0.15421 0.033169 0.0
0.159414 0.0303431 0.0
0.0411927 0.12271 0.0
0.0433967 0.128519 0.0
0.0461424 0.130603 0.0
0.0549704 0.139375 0.0
0.0504922 0.135288 0.0
0.0924331 0.109833 0.0
0.059155 0.130799 0.0
0.0597119 0.142346 0.0
0.0685356 0.12948 0.0
0.0858447 0.119881 0.0
0.0808425 0.117468 0.0
0.0756496 0.12987 0.0
0.088421 0.0913955 0.0
0.0658824 0.10196 0.0
0.0706033 0.0978162 0.0
0.0755768 0.0947374 0.0
0.0831565 0.0992238 0.0
0.0844675 0.0946905 0.0
0.0892129 0.0942623 0.0
0.0965744 0.0977212 0.0
0.061082 0.0988433 0.0
0.0394227 0.105872 0.0
0.034406 0.114429 0.0
0.0850155 0.0914172 0.0
0.0798664 0.0927796 0.0
0.0623889 0.110197 0.0
0.0262411 0.121647 0.0
0.00884509 0.130575 0.0
0.0176884 0.130086 0.0
0.0661111 0.0919131 0.0
0.0687909 0.099249 0.0
0.0734605 0.0928273 0.0
0.0629333 0.105053 0.0
0.0552048 0.106444 0.0
0.0930366 0.0962935 0.0
0.0563389 0.111632 0.0
0.0483436 0.112106 0.0
0.0480304 0.119628 0.0
0.0522297 0.117728 0.0
0.0470361 0.126008 0.0
7.30715e-33 0.14068 0.0
0.00887751 0.140216 0.0
0.0464674 0.132852 0.0
0.2028 8.53588e-33 0.0
0.200545 7.46953e-33 0.0
0.198001 6.53821e-33 0.0
0.196972 0.00309501 0.0
0.194192 0.00357571 0.0
0.186054 0.00790332 0.0
0.184289 0.0124294 0.0
0.189585 0.00767195 0.0
0.192161 0.0072056 0.0
0.170831 0.0194089 0.0
0.175118 0.0158255 0.0
0.180072 0.0145494 0.0
0.17642 0.018738 0.0
0.167633 0.0263796 0.0
0.163104 0.0287205 0.0
0.101381 0.0969369 0.0
0.109209 0.0934791 0.0
0.114358 0.0816254 0.0
0.120638 0.0796651 0.0
0.130826 0.0519636 0.0
0.124584 0.0708969 0.0
0.128369 0.0623734 0.0
0.135493 0.0498675 0.0
0.141144 0.0481729 0.0
0.16 0.0371286 0.0
0.147079 0.044092 0.0
0.151694 0.0425057 0.0
0.156146 0.0383771 0.0
0.0994242 0.108553 0.0
0.0477383 0.139012 0.0
0.0494207 0.14218 0.0
0.0594008 0.152455 0.0
0.0558724 0.150498 0.0
0.0907811 0.121586 0.0
0.0678873 0.141771 0.0
0.0646287 0.155237 0.0
0.0744459 0.142486 0.0
0.0855514 0.129624 0.0
0.0796088 0.136147 0.0
0.0998666 0.100012 0.0
0.0721052 0.115276 0.0
0.0774239 0.109367 0.0
0.0824519 0.105386 0.0
0.0902721 0.110125 0.0
0.0907584 0.103892 0.0
0.0955205 0.102369 0.0
0.107153 0.10537 0.0
0.101504 0.103039 0.0
0.0403827 0.112405 0.0
0.0500232 0.141442 0.0
0.0992835 0.101116 0.0
0.0350612 0.121496 0.0
0.0435141 0.121217 0.0
0.0877033 0.0957902 0.0
0.0822485 0.0977281 0.0
0.0665294 0.121409 0.0
0.0265882 0.130965 0.0
0.017731 0.139605 0.0
0.0706996 0.10512 0.0
0.0762881 0.09978 0.0
0.0580706 0.113305 0.0
0.0643127 0.11145 0.0
0.0981713 0.10325 0.0
0.060738 0.123456 0.0
0.0783758 0.132532 0.0
0.0520378 0.120756 0.0
0.0573588 0.132236 0.0
0.054961 0.139012 0.0
7.1054e-33 0.150448 0.0
0.00832433 0.149899 0.0
0.0175803 0.148081 0.0
0.053238 0.143595 0.0
0.206154 5.30287e-33 0.0
0.204811 9.40247e-33 0.0
0.203671 0.00222462 0.0
0.202071 0.00253329 0.0