# vtk DataFile Version 2.0
Vtkoutput example
ASCII

DATASET UNSTRUCTURED_GRID
POINTS 36864 float
0.0201562 0.0201562 0.0
0.0204687 0.0201562 0.0
0.0207812 0.0201562 0.0
0.0210937 0.0201562 0.0
0.0214062 0.0201562 0.0
0.0217187 0.0201562 0.0
0.0220312 0.0201562 0.0
0.0223437 0.0201562 0.0
0.0226562 0.0201562 0.0
0.0229687 0.0201562 0.0
0.0232812 0.0201562 0.0
0.0235937 0.0201562 0.0
0.0239062 0.0201562 0.0
0.0242187 0.0201562 0.0
0.0245312 0.0201562 0.0
0.0248437 0.0201562 0.0
0.0251562 0.0201562 0.0
0.0254687 0.0201562 0.0
0.0257812 0.0201562 0.0
0.0260937 0.0201562 0.0
0.0264062 0.0201562 0.0
0.0267187 0.0201562 0.0
0.0270312 0.0201562 0.0
0.0273438 0.0201562 0.0
0.0276562 0.0201562 0.0
0.0279687 0.0201562 0.0
0.0282813 0.0201562 0.0
0.0285937 0.0201562 0.0
0.0289062 0.0201562 0.0
0.0292187 0.0201562 0.0
0.0295312 0.0201562 0.0
0.0298437 0.0201562 0.0
0.0301563 0.0201562 0.0
0.0304687 0.0201562 0.0
0.0307812 0.0201562 0.0
0.0310937 0.0201562 0.0
0.0314062 0.0201562 0.0
0.0317188 0.0201562 0.0
0.0320312 0.0201562 0.0
0.0323437 0.0201562 0.0
0.0326562 0.0201562 0.0
0.0329688 0.0201562 0.0
0.0332812 0.0201562 0.0
0.0335937 0.0201562 0.0
0.0339062 0.0201562 0.0
0.0342187 0.0201562 0.0
0.0345312 0.0201562 0.0
0.0348437 0.0201562 0.0
0.0351562 0.0201562 0.0
0.0354688 0.0201562 0.0
0.0357813 0.0201562 0.0
0.0360938 0.0201562 0.0
0.0364063 0.0201562 0.0
0.0367188 0.0201562 0.0
0.0370313 0.0201562 0.0
0.0373438 0.0201562 0.0
0.0376563 0.0201562 0.0
0.0379687 0.0201562 0.0
0.0382812 0.0201562 0.0
0.0385938 0.0201562 0.0
0.0389062 0.0201562 0.0
0.0392187 0.0201562 0.0
0.0395313 0.0201562 0.0
0.0398437 0.0201562 0.0
0.0401563 0.0201562 0.0
0.0404687 0.0201562 0.0
0.0407812 0.0201562 0.0
0.0410937 0.0201562 0.0
0.0414062 0.0201562 0.0
0.0417187 0.0201562 0.0
0.0420312 0.0201562 0.0
0.0423437 0.0201562 0.0
0.0426562 0.0201562 0.0
0.0429688 0.0201562 0.0
0.0432813 0.0201562 0.0
0.0435938 0.0201562 0.0
0.0439063 0.0201562 0.0
0.0442188 0.0201562 0.0
0.0445313 0.0201562 0.0
0.0448438 0.0201562 0.0
0.0451562 0.0201562 0.0
0.0454688 0.0201562 0.0
0.0457813 0.0201562 0.0
0.0460938 0.0201562 0.0
0.0464062 0.0201562 0.0
0.0467188 0.0201562 0.0
0.0470312 0.0201562 0.0
0.0473438 0.0201562 0.0
0.0476563 0.0201562 0.0
0.0479687 0.0201562 0.0
0.0482813 0.0201562 0.0
0.0485938 0.0201562 0.0
0.0489062 0.0201562 0.0
0.0492188 0.0201562 0.0
0.0495313 0.0201562 0.0
0.0498437 0.0201562 0.0
0.0501562 0.0201562 0.0
0.0504688 0.0201562 0.0
0.0507812 0.0201562 0.0
0.0510938 0.0201562 0.0
0.0514063 0.0201562 0.0
0.0517187 0.0201562 0.0
0.0520313 0.0201562 0.0
0.0523438 0.0201562 0.0
0.0526563 0.0201562 0.0
0.0529687 0.0201562 0.0
0.0532813 0.0201562 0.0
0.0535938 0.0201562 0.0
0.0539063 0.0201562 0.0
0.0542187 0.0201562 0.0
0.0545313 0.0201562 0.0
0.0548438 0.0201562 0.0
0.0551563 0.0201562 0.0
0.0554688 0.0201562 0.0
0.0557812 0.0201562 0.0
0.0560937 0.0201562 0.0
0.0564062 0.0201562 0.0
0.0567188 0.0201562 0.0
0.0570313 0.0201562 0.0
0.0573438 0.0201562 0.0
0.0576562 0.0201562 0.0
0.0579687 0.0201562 0.0
0.0582813 0.0201562 0.0
0.0585938 0.0201562 0.0
0.0589063 0.0201562 0.0
0.0592188 0.0201562 0.0
0.0595313 0.0201562 0.0
0.0598438 0.0201562 0.0
0.0601563 0.0201562 0.0
0.0604688 0.0201562 0.0
0.0607813 0.0201562 0.0
0.0610938 0.0201562 0.0
0.0614062 0.0201562 0.0
0.0617188 0.0201562 0.0
0.0620313 0.0201562 0.0
0.0623438 0.0201562 0.0
0.0626562 0.0201562 0.0
0.0629688 0.0201562 0.0
0.0632813 0.0201562 0.0
0.0635938 0.0201562 0.0
0.0639062 0.0201562 0.0
0.0642187 0.0201562 0.0
0.0645313 0.0201562 0.0
0.0648438 0.0201562 0.0
0.0651562 0.0201562 0.0
0.0654688 0.0201562 0.0
0.0657812 0.0201562 0.0
0.0660937 0.0201562 0.0
0.0664062 0.0201562 0.0
0.0667188 0.0201562 0.0
0.0670313 0.0201562 0.0
0.0673438 0.0201562 0.0
0.0676563 0.0201562 0.0
0.0679688 0.0201562 0.0
0.0682813 0.0201562 0.0
0.0685938 0.0201562 0.0
0.0689063 0.0201562 0.0
0.0692187 0.0201562 0.0
0.0695313 0.0201562 0.0
0.0698438 0.0201562 0.0
0.0701563 0.0201562 0.0
0.0704687 0.0201562 0.0
0.0707813 0.0201562 0.0
0.0710938 0.0201562 0.0
0.0714063 0.0201562 0.0
0.0717187 0.0201562 0.0
0.0720313 0.0201562 0.0
0.0723437 0.0201562 0.0
0.0726563 0.0201562 0.0
0.0729687 0.0201562 0.0
0.0732813 0.0201562 0.0
0.0735938 0.0201562 0.0
0.0739063 0.0201562 0.0
0.0742188 0.0201562 0.0
0.0745313 0.0201562 0.0
0.0748438 0.0201562 0.0
0.0751563 0.0201562 0.0
0.0754688 0.0201562 0.0
0.0757812 0.0201562 0.0
0.0760938 0.0201562 0.0
0.0764063 0.0201562 0.0
0.0767187 0.0201562 0.0
0.0770313 0.0201562 0.0
0.0773438 0.0201562 0.0
0.0776562 0.0201562 0.0
0.0779688 0.0201562 0.0
0.0782813 0.0201562 0.0
0.0785938 0.0201562 0.0
0.0789063 0.0201562 0.0
0.0792188 0.0201562 0.0
0.0795312 0.0201562 0.0
0.0798438 0.0201562 0.0
0.0201562 0.0204687 0.0
0.0204687 0.0204687 0.0
0.0207812 0.0204687 0.0
0.0210937 0.0204687 0.0
0.0214062 0.0204687 0.0
0.0217187 0.0204687 0.0
0.0220312 0.0204687 0.0
0.0223437 0.0204687 0.0
0.0226562 0.0204687 0.0
0.0229687 0.0204687 0.0
0.0232812 0.0204687 0.0
0.0235937 0.0204687 0.0
0.0239062 0.0204687 0.0
0.0242187 0.0204687 0.0
0.0245312 0.0204687 0.0
0.0248437 0.0204687 0.0
0.0251562 0.0204687 0.0
0.0254687 0.0204687 0.0
0.0257812 0.0204687 0.0
0.0260937 0.0204687 0.0
0.0264062 0.0204687 0.0
0.0267187 0.0204687 0.0
0.0270312 0.0204687 0.0
0.0273438 0.0204687 0.0
0.0276562 0.0204687 0.0
0.0279687 0.0204687 0.0
0.0282813 0.0204687 0.0
0.0285937 0.0204687 0.0
0.0289062 0.0204687 0.0
0.0292187 0.0204687 0.0
0.0295312 0.0204687 0.0
0.0298437 0.0204687 0.0
0.0301563 0.0204687 0.0
0.0304687 0.0204687 0.0
0.0307812 0.0204687 0.0
0.0310937 0.0204687 0.0
0.0314062 0.0204687 0.0
0.0317188 0.0204687 0.0
0.0320312 0.0204687 0.0
0.0323437 0.0204687 0.0
0.0326562 0.0204687 0.0
0.0329688 0.0204687 0.0
0.0332812 0.0204687 0.0
0.0335937 0.0204687 0.0
0.0339062 0.0204687 0.0
0.0342187 0.0204687 0.0
0.0345312 0.0204687 0.0
0.0348437 0.0204687 0.0
0.0351562 0.0204687 0.0
0.0354688 0.0204687 0.0
0.0357813 0.0204687 0.0
0.0360938 0.0204687 0.0
0.0364063 0.0204687 0.0
0.0367188 0.0204687 0.0
0.0370313 0.0204687 0.0
0.0373438 0.0204687 0.0
0.0376563 0.0204687 0.0
0.0379687 0.0204687 0.0
0.0382812 0.0204687 0.0
0.0385938 0.0204687 0.0
0.0389062 0.0204687 0.0
0.0392187 0.0204687 0.0
0.0395313 0.0204687 0.0
0.0398437 0.0204687 0.0
0.0401563 0.0204687 0.0
0.0404687 0.0204687 0.0
0.0407812 0.0204687 0.0
0.0410937 0.0204687 0.0
0.0414062 0.0204687 0.0
0.0417187 0.0204687 0.0
0.0420312 0.0204687 0.0
0.0423437 0.0204687 0.0
0.0426562 0.0204687 0.0
0.0429688 0.0204687 0.0
0.0432813 0.0204687 0.0
0.0435938 0.0204687 0.0
0.0439063 0.0204687 0.0
0.0442188 0.0204687 0.0
0.0445313 0.0204687 0.0
0.0448438 0.0204687 0.0
0.0451562 0.0204687 0.0
0.0454688 0.0204687 0.0
0.0457813 0.0204687 0.0
0.0460938 0.0204687 0.0
0.0464062 0.0204687 0.0
0.0467188 0.0204687 0.0
0.0470312 0.0204687 0.0
0.0473438 0.0204687 0.0
0.0476563 0.0204687 0.0
0.0479687 0.0204687 0.0
0.0482813 0.0204687 0.0
0.0485938 0.0204687 0.0
0.0489062 0.0204687 0.0
0.0492188 0.0204687 0.0
0.0495313 0.0204687 0.0
0.0498437 0.0204687 0.0
0.0501562 0.0204687 0.0
0.0504688 0.0204687 0.0
0.0507812 0.0204687 0.0
0.0510938 0.0204687 0.0
0.0514063 0.0204687 0.0
0.0517187 0.0204687 0.0
0.0520313 0.0204687 0.0
0.0523438 0.0204687 0.0
0.0526563 0.0204687 0.0
0.0529687 0.0204687 0.0
0.0532813 0.0204687 0.0
0.0535938 0.0204687 0.0
0.0539063 0.0204687 0.0
0.0542187 0.0204687 0.0
0.0545313 0.0204687 0.0
0.0548438 0.0204687 0.0
0.0551563 0.0204687 0.0
0.0554688 0.0204687 0.0
0.0557812 0.0204687 0.0
0.0560937 0.0204687 0.0
0.0564062 0.0204687 0.0
0.0567188 0.0204687 0.0
0.0570313 0.0204687 0.0
0.0573438 0.0204687 0.0
0.0576562 0.0204687 0.0
0.0579687 0.0204687 0.0
0.0582813 0.0204687 0.0
0.0585938 0.0204687 0.0
0.0589063 0.0204687 0.0
0.0592188 0.0204687 0.0
0.0595313 0.0204687 0.0
0.0598438 0.0204687 0.0
0.0601563 0.0204687 0.0
0.0604688 0.0204687 0.0
0.0607813 0.0204687 0.0
0.0610938 0.0204687 0.0
0.0614062 0.0204687 0.0
0.0617188 0.0204687 0.0
0.0620313 0.0204687 0.0
0.0623438 0.0204687 0.0
0.0626562 0.0204687 0.0
0.0629688 0.0204687 0.0
0.0632813 0.0204687 0.0
0.0635938 0.0204687 0.0
0.0639062 0.0204687 0.0
0.0642187 0.0204687 0.0
0.0645313 0.0204687 0.0
0.0648438 0.0204687 0.0
0.0651562 0.0204687 0.0
0.0654688 0.0204687 0.0
0.0657812 0.0204687 0.0
0.0660937 0.0204687 0.0
0.0664062 0.0204687 0.0
0.0667188 0.0204687 0.0
0.0670313 0.0204687 0.0
0.0673438 0.0204687 0.0
0.0676563 0.0204687 0.0
0.0679688 0.0204687 0.0
0.0682813 0.0204687 0.0
0.0685938 0.0204687 0.0
0.0689063 0.0204687 0.0
0.0692187 0.0204687 0.0
0.0695313 0.0204687 0.0
0.0698438 0.0204687 0.0
0.0701563 0.0204687 0.0
0.0704687 0.0204687 0.0
0.0707813 0.0204687 0.0
0.0710938 0.0204687 0.0
0.0714063 0.0204687 0.0
0.0717187 0.0204687 0.0
0.0720313 0.0204687 0.0
0.0723437 0.0204687 0.0
0.0726563 0.0204687 0.0
0.0729687 0.0204687 0.0
0.0732813 0.0204687 0.0
0.0735938 0.0204687 0.0
0.0739063 0.0204687 0.0
0.0742188 0.0204687 0.0
0.0745313 0.0204687 0.0
0.0748438 0.0204687 0.0
0.0751563 0.0204687 0.0
0.0754688 0.0204687 0.0
0.0757812 0.0204687 0.0
0.0760938 0.0204687 0.0
0.0764063 0.0204687 0.0
0.0767187 0.0204687 0.0
0.0770313 0.0204687 0.0
0.0773438 0.0204687 0.0
0.0776562 0.0204687 0.0
0.0779688 0.0204687 0.0
0.0782813 0.0204687 0.0
0.0785938 0.0204687 0.0
0.0789063 0.0204687 0.0
0.0792188 0.0204687 0.0
0.0795312 0.0204687 0.0
0.0798438 0.0204687 0.0
0.0201562 0.0207812 0.0
0.0204687 0.0207812 0.0
0.0207812 0.0207812 0.0
0.0210937 0.0207812 0.0
0.0214062 0.0207812 0.0
0.0217187 0.0207812 0.0
0.0220312 0.0207812 0.0
0.0223437 0.0207812 0.0
0.0226562 0.0207812 0.0
0.0229687 0.0207812 0.0
0.0232812 0.0207812 0.0
0.0235937 0.0207812 0.0
0.0239062 0.0207812 0.0
0.0242187 0.0207812 0.0
0.0245312 0.0207812 0.0
0.0248437 0.0207812 0.0
0.0251562 0.0207812 0.0
0.0254687 0.0207812 0.0
0.0257812 0.0207812 0.0
0.0260937 0.0207812 0.0
0.0264062 0.0207812 0.0
0.0267187 0.0207812 0.0
0.0270312 0.0207812 0.0
0.0273438 0.0207812 0.0
0.0276562 0.0207812 0.0
0.0279687 0.0207812 0.0
0.0282813 0.0207812 0.0
0.0285937 0.0207812 0.0
[...]
POINT_DATA 36864
SCALARS Intensity float 1
LOOKUP_TABLE default
0.345788
0.348615
0.280175
0.237418
0.355767
0.327403
0.277544
0.354882
0.349479
0.288772
0.26558
0.343265
0.398269
0.301648
0.260436
0.303173
0.333346
0.368786
0.376028
0.28414
0.270585
0.295785
0.365018
0.331709
0.307865
0.344902
0.273368
0.294609
0.242928
0.292128
0.32954
0.300806
0.313966
0.32718
0.295576
0.351584
0.242764
0.457175
0.325226
0.320488
0.314097
0.347885
0.268755
0.364335
0.347891
0.303217
0.333223
0.286163
0.338194
0.235357
0.368152
0.304156
0.311804
0.341068
0.311591
0.419436
0.287495
0.262452
0.332782
0.393159
0.279797
0.301357
0.343471
0.346721
0.243761
0.301915
0.325602
0.32192
0.30241
0.289977
0.300347
0.35078
0.34614
0.258987
0.426807
0.364747
0.281289
0.271995
0.302624
0.373234
0.354984
0.355755
0.363803
0.253427
0.321281
0.336756
0.345758
0.264437
0.258011
0.197811
0.337707
0.307884
0.325446
0.322638
0.304496
0.361729
0.299784
0.285309
0.29882
0.333429
0.410589
0.347983
0.273714
0.296455
0.307119
0.316375
0.35623
0.279989
0.303894
0.303652
0.31512
0.227873
0.320779
0.29024
0.322907
0.307739
0.424605
0.322477
0.403373
0.241079
0.268144
0.261264
0.327728
0.274686
0.190554
0.348921
0.377277
0.284549
0.236131
0.300832
0.345449
0.225043
0.274895
0.360055
0.26635
0.365554
0.269045
0.192245
0.235713
0.18163
0.34084
0.333229
0.329204
0.316428
0.27359
0.38414
0.361045
0.350682
0.252536
0.257388
0.419711
0.293597
0.341142
0.247038
0.407634
0.331757
0.266109
0.286603
0.344288
0.294426
0.270877
0.268189
0.325113
0.219826
0.230379
0.282328
0.212137
0.349512
0.2906
0.365895
0.325324
0.228918
0.333268
0.378492
0.397144
0.341522
0.269676
0.342085
0.282567
0.191975
0.279766
0.299313
0.35718
0.303863
0.317275
0.295891
0.344402
0.332429
0.338892
0.322202
0.334019
0.219769
0.305346
0.420018
0.278784
0.246954
0.365334
0.28711
0.291288
0.348076
0.375188
0.370428
0.28606
0.340341
0.348534
0.318192
0.364179
0.322608
0.33176
0.277312
0.208132
0.330867
0.250585
0.258676
0.280379
0.280082
0.379407
0.307027
0.341735
0.311486
0.374153
0.306204
0.369656
0.275668
0.328009
0.386945
0.319449
0.396342
0.361996
0.359946
0.368862
0.28626
0.316283
0.295493
0.37916
0.292848
0.338987
0.317784
0.27289
0.297977
0.379088
0.341405
0.326456
0.267869
0.317519
0.277114
0.361007
0.33078
0.368066
0.372256
0.332951
0.284939
0.365274
0.332769
0.315767
0.229832
0.357348
0.358239
0.335271
0.231926
0.315525
0.408284
0.284875
0.302669
0.237277
0.355998
0.275997
0.362398
0.249965
0.31626
0.277141
0.236121
0.295685
0.289037
0.284174
0.345319
0.268091
0.191194
0.286922
0.397733
0.345695
0.220438
0.39334
0.303473
0.336931
0.295549
0.222048
0.429247
0.327458
0.387691
0.328654
0.335699
0.247381
0.289298
0.337634
0.349025
0.222081
0.286982
0.329132
0.301949
0.241547
0.374186
0.274658
0.273013
0.306901
0.315816
0.337458
0.309232
0.236676
0.335678
0.350413
0.371755
0.274228
0.29091
0.249079
0.250252
0.276083
0.330642
0.288834
0.294622
0.335037
0.26074
0.37396
0.292179
0.267641
0.276658
0.312652
0.325133
0.359181
0.357552
0.325773
0.273356
0.347494
0.245802
0.297255
0.363807
0.332057
0.27987
0.264728
0.324212
0.375215
0.385564
0.357104
0.328086
0.31344
0.389582
0.394986
0.26071
0.29274
0.333081
0.278274
0.39725
0.309189
0.266301
0.366352
0.288674
0.284207
0.248256
0.388837
0.309249
0.270738
0.25983
0.271224
0.300478
0.276337
0.374735
0.282006
0.297479
0.256448
0.350136
0.310926
0.342572
0.268462
0.259216
0.310231
0.378927
0.394269
0.311527
0.216463
0.345219
0.242916
0.336361
0.310282
0.291128
0.219568
0.314036
0.274846
0.294704
0.298256
0.301875
0.277932
0.267321
0.411612
0.29431
0.280196
0.289527
0.229964
0.326239
0.337424
0.355622
0.356714
0.405385
0.312736
0.309896
0.248168
0.327734
0.328183
0.253073
0.322019
0.283637
0.353634
0.278587
0.320465
0.334154
0.365908
0.407058
0.230777
0.255557
0.320778
0.300471
0.249166
0.288075
0.328175
0.324358
0.335378
0.322649
0.307087
0.321648
0.385988
0.382069
0.330635
0.255844
0.269181
0.356432
0.248619
0.270389
0.298853
0.289672
0.261652
0.35294
0.280337
0.278201
0.296934
0.299355
0.364232
0.322596
0.292797
0.318863
0.30445
0.299675
0.265908
0.371229
0.407307
0.257462
0.271517
0.304263
0.225314
0.244286
0.373533
0.26354
0.351711
0.350804
0.258228
0.301793
0.305513
0.394279
0.327285
0.295879
0.277852
0.28162
0.349349
0.330041
0.290936
0.442544
0.249081
0.378055
0.384563
0.274181
0.294065
0.260736
0.338696
0.215015
0.335602
0.319341
0.37359
0.308976
0.28016
0.281102
0.277262
0.337438
0.266346
0.250465
0.355757
0.295321
0.209712
0.282441
0.270888
0.388232
0.286633
0.295788
0.274069
0.340818
0.256462
0.27017
0.30593
0.332213
0.322175
0.293355
0.334047
0.311505
0.373754
0.325083
0.279318
0.341231
0.266013
0.334901
0.310935
0.404201
0.278693
0.359986
0.279784
0.319833
0.3149
0.218238
0.231026
0.277263
0.258922
0.39962
0.311224
0.357095
0.328295
0.296604
0.277831
0.278219
0.309355
0.297752
0.320026
0.303835
0.320193
0.322091
0.34074
0.368831
0.306121
0.241412
0.303387
0.247809
0.386263
0.295834
0.286358
0.216428
0.282147
0.309527
0.356552
0.293443
0.40258
0.322269
0.282054
0.380637
0.310247
0.276207
0.284191
0.309258
0.361442
0.334674
0.34756
0.264768
0.324223
0.333178
0.226508
0.41162
0.212422
0.245783
0.276699
0.257656
0.248936
0.246868
0.34904
0.237779
0.248833
0.403717
0.262713
0.308797
0.298773
0.36796
0.22863
0.365081
0.368866
0.279049
0.383031
0.35026
0.346624
0.330853
0.407359
0.267369
0.29773
0.276276
0.242437
0.367183
0.405649
0.312704
0.361819
0.247879
0.297421
0.258766
0.287732
0.248198
0.292481
0.316898
0.313009
0.291302
0.321678
0.257726
0.210735
0.244037
0.395439
0.347907
0.355635
0.358839
0.344187
0.334605
0.248135
0.314189
0.37037
0.317188
0.344351
0.397104
0.428589
0.309082
0.312661
0.35702
0.301329
0.221062
0.321277
0.356588
0.239099
0.324419
0.273418
0.329197
0.332416
0.346827
0.231867
0.330267
0.309331
0.1898
0.366603
0.400414
0.292603
0.284326
0.383631
0.333458
0.329516
0.296713
0.237431
0.350186
0.365944
0.40127
0.351159
0.364957
0.362472
0.2376
0.362753
0.375457
0.269858
0.339259
0.327965
0.313639
0.257857
0.277209
0.311461
0.261307
0.366575
0.258075
0.190535
0.291166
0.336972
0.29073
0.290908
0.324767
0.315377
0.371824
0.350274
0.282279
0.284106
0.325654
0.273394
0.296395
0.277375
0.286122
0.354568
0.327063
0.305852
0.307703
0.28869
0.329783
0.303357
0.280089
0.269892
0.256639
0.327188
0.349908
0.276853
0.351305
0.356613
0.290594
0.307984
0.248597
0.3475
0.294649
0.334417
0.296001
0.299331
0.272054
0.356269
0.313134
0.337029
0.356753
0.370671
0.417653
0.259915
0.301969
0.218216
0.280098
0.29499
0.263163
0.321469
0.252578
0.281875
0.35043
0.365362
0.228955
0.219691
0.35274
0.335611
0.271735
0.452418
0.279024
0.33362
0.33946
0.240832
0.349969
0.258418
0.316104
0.221601
0.312336
0.364727
0.268698
0.347015
0.281593
0.264103
0.395895
0.293342
0.359169
0.332753
0.356743
0.243955
0.380483
0.346027
0.305234
0.379708
0.316161
0.293343
0.364888
0.281712
0.230132
0.238973
0.128408
0.296358
0.278268
0.33645
0.281098
0.294546
0.28479
0.275998
0.30795
0.304772
0.312738
0.287754
0.300226
0.374951
0.298376
0.473923
0.385533
0.312328
0.371582
0.231636
0.287072
0.300185
0.331058
0.222793
0.317098
0.338145
0.238386
0.305802
0.329149
0.286384
0.369692
0.242827
0.294982
0.317625
0.358211
0.331151
0.26438
0.250778
0.366071
0.316503
0.161135
0.364213
0.325624
0.280971
0.316593
0.305003
0.297227
0.292676
0.233765
0.360313
0.290963
0.272966
0.314535
0.37283
0.220198
0.288196
0.286528
0.237785
0.417442
0.359474
0.292544
0.295808
0.318038
0.358192
0.340356
0.356748
0.328044
0.291355
0.255507
0.317576
0.390486
0.249998
0.321448
0.313878
0.261538
0.347027
0.300045
0.355094
0.404241
0.361131
0.314065
0.276144
0.318845
0.229639
0.397357
0.335595
0.284353
0.283778
0.307965
0.218152
0.274434
0.320424
0.355115
0.329457
0.313519
0.342378
0.399036
0.258291
0.322137
0.325659
0.229807
0.177201
0.274971
0.309661
0.279878
0.272794
0.262512
0.305335
0.362374
0.263275
0.321761
0.254394
0.301964
0.338479
0.400648
0.31213
0.398528
0.246609
0.317596
0.310212
0.382715
0.234745
0.333507
0.398932
0.295346
0.370708
0.344894
0.295411
0.292556
0.311431
0.319623
0.344533
0.313494
0.231215
0.249123
0.34179
0.333448
0.306878
0.329091
0.383635
0.274264
0.260086
0.318509
0.290602
0.307827
0.318465
0.320032
0.277496
0.31444
0.258339
0.283372
0.283151
0.337987
0.255438
0.248896
0.323749
0.296205
0.274422
0.296963
0.346152
0.314831
0.275624
0.292297
0.345595
0.28115
0.312424
0.364048
0.32877
0.42499
0.226488
0.319155
0.356526
0.289414
0.266065
0.277206
0.232901
0.241039
0.367064
0.299168
0.304838
0.271308
0.431999
0.231315
0.289009
0.222114
0.272589
0.335261
0.311589
0.288459
0.321077
0.377331
0.304245
0.216146
0.330118
0.376202
0.222761
0.262375
0.362311
0.255282
0.243813
0.290727
0.329289
0.249345
0.356931
0.329557
0.239465
0.272567
0.32933
0.33899
0.258417
0.314575
0.327746
0.275375
0.299118
0.296522
0.323667
0.320651
0.312698
0.336883
0.394011
0.390696
0.260874
0.28437
0.330839
0.297329
0.329863
0.336493
0.302484
0.300059
0.21547
0.415317
0.325025
0.325986
0.24971
0.328086
0.325125
0.361911
0.249399
0.284838
0.276634
0.374105
0.359287
0.220178
0.298579
0.245576
0.302884
0.225006
0.237326
0.307961
0.3666
0.354271
0.273344
0.283361
0.301937
0.326497
0.277375
0.347635
0.403912
0.279631
0.336962
0.332677
0.263206
0.284309
0.281595
0.257984
0.220047
0.361797
0.279958
0.370335
0.238681
0.343787
0.275088
0.291963
0.278552
0.287485
0.281517
0.348928
0.265869
0.289622
0.270578
0.288811
0.324093
0.339288
0.340194
0.226791
0.27223
0.272966
0.360699
0.211226
0.365328
0.347652
0.325018
0.32039
0.329567
0.280358
0.304631
0.331437
0.385636
0.305016
0.394069
0.356537
0.306984
0.303709
0.375052
0.30288
0.305954
0.261667
0.29066
0.326792
0.310734
0.306298
0.391779
0.314375
0.285412
0.307537
0.20854
0.258244
0.343089
0.389497
0.326965
0.295105
0.23577
0.3353
0.361309
0.260754
0.290827
0.253533
0.249279
0.341092
0.309273
0.303513
0.272365
0.263127
0.2904
0.37057
0.338687
0.313615
0.351311
0.227985
0.313783
0.268011
0.343228
0.26716
0.256636
0.255501
0.254287
0.389957
0.256697
0.357445
0.349345
0.286941
0.318134
0.249912
0.342801
0.38635
0.277907
0.311126
0.296013
0.280755
0.309342
0.276096
0.381801
0.23809
0.254127
0.319798
0.23986
0.320666
0.244754
0.306085
0.31121
0.349936
0.402819
0.286027
0.331959
0.324514
0.389932
0.298807
0.377404
0.35494
0.29389
0.426346
0.380645
0.253449
0.280539
0.315376
0.246255
0.240753
0.334496
0.395662
0.368802
0.39344
0.386355
0.299995
0.426319
0.327356
0.366752
0.374903
0.309902
0.237679
0.327093
0.251828
0.339634
0.361058
0.257004
0.321797
0.208271
0.374644
0.305359
0.243006
0.295596
0.330952
0.290831
0.333798
0.349955
0.322203
0.279218
0.288006
0.270366
0.309228
0.37183
0.290014
0.297826
0.326278
0.26016
0.379235
0.339784
0.383564
0.280118
0.316089
0.283761
0.303261
0.279736
0.36718
0.27029
0.278054
0.352673
0.33652
0.373072
0.330033
0.308301
0.380425
0.275438
0.354194
0.291877
0.261266
0.308374
0.382881
0.237237
0.229759
0.400535
0.286643
0.359403
0.290851
0.336629
0.217646
0.350787
0.379238
0.318839
0.30865
0.257775
0.32208
0.284673
0.340602
0.389701
0.256419
0.350092
0.33847
0.239661
0.339709
0.279962
0.288692
0.23327
0.259722
0.283544
0.231081
0.362567
0.444254
0.266705
0.257595
0.29041
0.304659
0.271141
0.295299
0.312298
0.391378
0.329878
0.345263
0.378059
0.353861
0.279309
0.326866
0.289493
0.366941
0.292661
0.32281
0.328171
0.303643
0.333566
0.269756
0.354038
0.331871
0.2771
0.337704
0.260395
0.294489
0.330352
0.274551
0.237442
0.350426
0.346563
0.38887
0.296982
0.234013
0.417503
0.281514
0.339121
0.234232
0.268586
0.3236
0.296782
0.289931
0.249023
0.333518
0.336685
0.368676
0.277079
0.222872
0.313763
0.290726
0.312281
0.288331
0.330122
0.319508
0.304137
0.27537
0.317433
0.404703
0.379994
0.308995
0.333273
0.330629
0.272207
0.399305
0.360522
0.342061
0.273302
0.229033
0.242241
0.326446
0.19463
0.323363
0.220886
0.363538
0.341366
0.302145
0.38589
0.289164
0.306392
0.29215
0.324764
0.424938
0.349577
0.297465
0.270768
0.417231
0.268807
0.359903
0.334669
0.334409
0.340606
0.398987
0.367212
0.324349
0.351145
0.250269
0.397309
0.232279
0.243844
0.238574
0.251142
0.26546
0.205148
0.317695
0.296667
0.320957
0.360947
0.396459
0.348597
0.318509
0.31279
0.290966
0.305339
0.275077
0.337785
0.261413
0.342646
0.385123
0.280778
0.264687
0.385005
0.298003
0.282785
0.293365
0.340576
0.298976
0.267962
0.284902
0.333651
0.329518
0.321768
0.291939
0.30861
0.361527
0.259935
0.275524
0.373494
0.363229
0.309087
0.334318
0.37927
0.321604
0.307438
0.326541
0.259892
0.354374
0.353938
0.334817
0.352619
0.262964
0.286168
0.326721
0.228389
0.293254
0.295571
0.30478
0.265324
0.402095
0.260152
0.405883
0.370702
0.325589
0.31728
0.346824
0.345859
0.30511
0.319972
0.298679
0.232097
0.28325
0.289979
0.286433
0.3296
0.282644
0.312713
0.271015
0.434587
0.335843
0.280084
0.321208
0.338568
0.390231
0.236136
0.344586
0.293058
0.314323
0.338068
0.300997
0.305088
0.324936
0.342955
0.307106
0.235159
0.306162
0.352479
0.207636
0.348433
0.285298
0.332223
0.182108
0.363315
0.341908
0.352643
0.327511
0.34186
0.273667
0.343569
0.330335
0.337952
0.363408
0.228783
0.318334
0.279718
0.262339
0.241694
0.363741
0.219942
0.323995
0.37899
0.305651
0.326575
0.296972
0.312531
0.271009
0.424438
0.328495
0.316163
0.250327
0.354538
0.399966
0.293006
0.297192
0.35516
0.320698
0.267828
0.346049
0.310894
0.392703
0.283899
0.387732
0.256446
0.292559
0.316815
0.203486
0.394099
0.316234
0.360473
0.307791
0.301111
0.361423
0.32856
0.303355
0.300262
0.239545
0.226374
0.296188
0.297457
0.3785
0.333413
0.271548
0.365732
0.329209
0.277883
0.279626
0.285946
0.310012
0.325106
0.224573
0.387499
0.329031
0.338088
0.370519
0.266818
0.393721
0.215068
0.276987
0.330107
0.399657
0.305283
0.277693
0.299461
0.344385
0.21301
0.341896
0.363183
0.364989
0.338588
0.409541
0.242004
0.37476
0.287343
0.368996
0.317735
0.445897
0.407337
0.306176
0.240485
0.278816
0.33666
0.340372
0.227137
0.333065
0.245777
0.226886
0.331718
0.330383
0.299734
0.322672
0.31934
0.280176
0.343459
0.361965
0.259201
0.220848
0.283168
0.266393
0.251526
0.326715
0.344931
0.344269
0.334835
0.356917
0.230306
0.250219
0.328445
0.348522
0.397476
0.327533
0.33692
0.247854
0.315765
0.304053
0.310359
0.30525
0.275554
0.329846
0.30205
0.323316
0.281907
0.363245
0.350722
0.313108
0.348072
0.38694
0.361183
0.355681
0.276943
0.322954
0.30613
0.266567
0.2985
0.260863
0.222842
0.322212
0.235862
0.317387
0.414025
0.307057
0.306027
0.251565
0.316575
0.295168
0.252483
0.300284
0.394633
0.277972
0.220572
0.301433
0.358269
0.355491
0.302296
0.298173
0.24647
0.305594
0.335635
0.254282
0.349905
0.27488
0.23485
0.307997
0.320466
0.427306
0.356845
0.193289
0.347454
0.260881
0.239383
0.312388
0.2988
0.270745
0.361187
0.36409
0.213425
0.344791
0.321911
0.304036
0.210819
0.251666
0.262696
0.337421
0.353281
0.331624
0.329321
0.314168
0.362088
0.326932
0.315526
0.410927
0.257673
0.34248
0.279298
0.335272
0.363756
0.32979
0.384541
0.298493
0.305337
0.367352
0.414148
0.233888
0.260908
0.308503
0.332627
0.315995
0.244673
0.355065
0.387435
0.267893
0.372928
0.244197
0.342417
0.349271
0.307739
0.211344
0.337518
0.274569
0.243575
0.228268
0.379244
0.422967
0.389654
0.237411
0.330469
0.381976
0.257698
0.237494
0.33613
0.286149
0.263048
0.352468
0.300472
0.330326
0.288423
0.321603
0.283987
0.303371
0.343884
0.309654
0.264868
0.321535
0.346584
0.332131
0.393961
0.231398
0.286878
0.354102
0.299861
0.306854
0.29733
0.249641
0.315955
0.264008
0.349467
0.316997
0.293107
0.373148
0.272429
0.29396
0.298368
0.229266
0.229614
0.228824
0.299046
0.284348
0.298947
0.310141
0.364016
0.32343
0.33524
0.283888
0.230328
0.282333
0.290213
0.303342
0.281735
0.349692
0.321183
0.379066
0.229241
0.287377
0.381575
0.319887
0.300981
0.312948
0.356138
0.264642
0.324484
0.300669
0.284598
0.340599
0.34901
0.2624
0.270353
0.299142
0.300188
0.358337
0.292716
0.279763
0.318926
0.310219
0.438972
0.333921
0.279365
0.380716
0.259169
0.368181
0.236125
0.341341
0.31695
0.194298
0.340311
0.287967
0.217105
0.24365
0.316022
0.392397
0.430614
0.237352
0.385541
0.293392
0.313494
0.26941
0.276993
0.239917
0.287983
0.273773
0.239375
0.279953
0.280263
0.360989
0.267738
0.322012
0.259
0.339089
0.194325
0.310225
0.357779
0.226827
0.387532
0.276243
0.293611
0.409366
0.318751
0.372596
0.288327
0.382086
0.329221
0.344444
0.325761
0.364691
0.34902
0.316328
0.280647
0.272882
0.281417
0.306837
0.270206
0.332194
0.34565
0.369471
0.254834
0.305615
0.236896
0.290223
0.299302
0.335677
0.29716
0.348273
0.277371
0.342489
0.207396
0.378855
0.30532
0.309629
0.273786
0.355287
0.309599
0.362559
0.261435
0.258442
0.307616
0.359397
0.18147
0.261478
0.268224
0.308968
0.277544
0.315483
0.398164
0.196844
0.323883
0.28616
0.275437
0.273956
0.3961
0.337048
0.262592
0.335661
0.361958
0.226353
0.307846
0.357947
0.320418
0.332468
0.357504
0.37146
0.293596
0.248219
0.248652
0.397892
0.296665
0.355453
0.290409
0.2987
0.394411
0.265629
0.239586
0.296929
0.267776
0.33938
0.324237
0.271606
0.390688
0.349223
0.24363
0.302609
0.321391
0.38998
0.394644
0.274759
0.259541
0.326569
0.314401
0.359755
0.339023
0.303828
0.31359
0.28921
0.31373
0.424197
0.219643
0.173421
0.26595
0.267942
0.229712
0.296842
0.330251
0.31291
0.236263
0.328392
0.300363
0.284891
0.24661
0.315995
0.257712
0.280425
0.372709
0.295752
0.31333
0.301593
0.39626
0.260667
0.371183
0.362513
0.256224
0.282844
0.384735
0.286782
0.345117
0.270842
0.302279
0.326344
0.249374
0.304878
0.345555
0.245174
0.333515
0.323186
0.319696
0.334019
0.327407
0.341785
0.264751
0.312231
0.237492
0.29849
0.356951
0.277167
0.269163
0.29277
0.26025
0.320299
0.329197
0.280302
0.336967
0.358647
0.389259
0.245323
0.34729
0.324629
0.343393
0.300616
0.252198
0.271172
0.285206
0.394873
0.287787
0.352205
0.254369
0.352782
0.314264
0.345958
0.233187
0.338493
0.390022
0.30471
0.273832
0.405713
0.373496
0.305432
0.237207
0.31794
0.354653
0.232396
0.318031
0.352701
0.343598
0.28932
0.248932
0.356268
0.286458
0.230149
0.304749
0.21934
0.30466
0.295251
0.352488
0.225127
0.269465
0.317952
0.380118
0.355417
0.355686
0.338108
0.400627
0.357956
0.31779
0.310721
0.350917
0.257496
0.307896
0.372934
0.273252
0.316526
0.317741
0.250539
0.30041
0.39932
0.364929
0.360108
0.232785
0.298294
0.338121
0.360719
0.277997
0.260515
0.342489
0.358852
0.2809
0.316713
0.312449
0.275762
0.32931
0.290058
0.303009
0.201575
0.334303
0.301473
0.376017
0.373863
0.325544
0.272563
0.265633
0.249703
0.340067
0.225906
0.276897
0.359623
0.403861
0.349127
0.255507
0.364013
0.373138
0.446936
0.288159
0.33375
0.254291
0.353028
0.249778
0.160156
0.493337
0.232694
0.308815
0.343177
0.281459
0.389072
0.284177
0.357111
0.340026
0.376478
0.369039
0.316426
0.375844
0.195107
0.250716
0.276361
0.321999
0.287965
0.376308
0.350239
0.308249
0.250811
0.288017
0.314816
0.406542
0.388336
0.27541
0.232686
0.246101
0.336179
0.248906
0.275757
0.360218
0.310142
0.276072
0.210543
0.322052
0.287717
0.248199
0.317249
0.28274
0.298282
0.317635
0.208966
0.387797
0.300581
0.297172
0.347891
0.304464
0.311679
0.299474
0.398875
0.289005
0.31474
0.342868
0.37882
0.327092
0.323307
0.332291
0.269592
0.283452
0.351727
0.2645
0.360979
0.303876
0.237362
0.23855
0.374339
0.318584
0.230716
0.364201
0.274618
0.266529
0.260592
0.349371
0.289845
0.309774
0.3073
0.200957
0.30482
0.319765
0.357307
0.282151
0.250175
0.289857
0.333511
0.312015
0.33893
0.384754
0.276228
0.239191
0.364567
0.331744
0.30612
0.277518
0.318868
0.355483
0.270654
0.30129
0.291341
0.278445
0.33608
0.310404
0.265303
0.361712
0.303774
0.313701
0.272451
0.369907
0.355846
0.302949
0.231383
0.316685
0.302346
0.356878
0.273376
0.254097
0.261796
0.262079
0.344753
0.308699
0.250692
0.292662
0.337679
0.291392
0.330515
0.356825
0.314443
0.290044
0.315945
0.336508
0.269678
0.21457
0.282145
0.299474
0.174036
0.240611
0.289907
0.336554
0.290429
0.251217
0.306365
0.246626
0.236038
0.246965
0.339707
0.352098
0.283968
0.341743
0.272913
0.289364
0.383353
0.307202
0.229054
0.431054
0.232081
0.341221
0.213036
0.260295
0.25059
0.256293
0.313571
0.333661
0.337862
0.242624
0.266586
0.357983
0.29674
0.342941
0.369552
0.300732
0.267511
0.252259
0.272209
0.348109
0.279451
0.30725