# vtk DataFile Version 2.0
Vtkoutput example
ASCII

DATASET UNSTRUCTURED_GRID
POINTS 3368 float
0.1 0.1 0.0
0.098 0.1 0.0
0.1 0.098 0.0
0.1 0.096 0.0
0.096 0.1 0.0
0.097 0.098 0.0
0.0985 0.097 0.0
0.0985 0.0955 0.0
0.1 0.094 0.0
0.094 0.1 0.0
0.092 0.1 0.0
0.0955 0.0985 0.0
0.09 0.1 0.0
0.096 0.096 0.0
0.0973333 0.0946667 0.0
0.0986667 0.0933333 0.0
0.1 0.092 0.0
0.088 0.1 0.0
0.0914286 0.0985714 0.0
0.0933333 0.0983333 0.0
0.094 0.0952222 0.0
0.0946667 0.0966667 0.0
0.0895 0.0985 0.0
0.0955 0.09375 0.0
0.0971429 0.0928571 0.0
0.0985 0.09125 0.0
0.1 0.09 0.0
0.086 0.1 0.0
0.0872727 0.0985455 0.0
0.0933333 0.0937778 0.0
0.091 0.097 0.0
0.0925 0.0955 0.0
0.0885455 0.0970909 0.0
0.0945682 0.0925114 0.0
0.097 0.091 0.0
0.0985 0.0895 0.0
0.1 0.088 0.0
0.084 0.1 0.0
0.0854545 0.0985455 0.0
0.0869091 0.0970909 0.0
0.0923636 0.0927273 0.0
0.0910909 0.0941818 0.0
0.0898182 0.0956364 0.0
0.0883636 0.0956364 0.0
0.0936364 0.0912727 0.0
0.0949091 0.0898182 0.0
0.0922028 0.0907902 0.0
0.0972 0.0888 0.0
0.0956364 0.0883636 0.0
0.0986 0.0874 0.0
0.1 0.086 0.0
0.082 0.1 0.0
0.0861538 0.0958462 0.0
0.0833846 0.0986154 0.0
0.0847692 0.0972308 0.0
0.0906667 0.0925 0.0
0.0893333 0.094 0.0
0.0875385 0.0944615 0.0
0.0930769 0.0889231 0.0
0.0944615 0.0875385 0.0
0.0907692 0.0903077 0.0
0.0914286 0.0885714 0.0
0.0970909 0.0869091 0.0
0.0958462 0.0861538 0.0
0.0985455 0.0854545 0.0
0.1 0.084 0.0
0.08 0.1 0.0
0.0814286 0.0985714 0.0
0.0857143 0.0942857 0.0
0.0842857 0.0957143 0.0
0.0828571 0.0971429 0.0
0.0892308 0.0916923 0.0
0.0871429 0.0928571 0.0
0.0928571 0.0871429 0.0
0.0942857 0.0857143 0.0
0.0893114 0.0901811 0.0
0.089392 0.08867 0.0
0.0907167 0.0867106 0.0
0.0972308 0.0847692 0.0
0.0957143 0.0842857 0.0
0.0986667 0.0835 0.0
0.1 0.082 0.0
0.078 0.1 0.0
0.0792178 0.0982115 0.0
0.085301 0.0925583 0.0
0.0806464 0.0967829 0.0
0.0837898 0.0936414 0.0
0.0824321 0.0949972 0.0
0.0872492 0.0908128 0.0
0.08531 0.0907126 0.0
0.0922534 0.0851627 0.0
0.0936298 0.0838015 0.0
0.0873555 0.0887685 0.0
0.0880013 0.0868419 0.0
0.0900049 0.0848497 0.0
0.0971429 0.0828571 0.0
0.0949856 0.0824438 0.0
0.0985714 0.0814286 0.0
0.1 0.08 0.0
0.076 0.1 0.0
0.0773196 0.0982116 0.0
0.0784356 0.096423 0.0
0.0834592 0.0922594 0.0
0.0798641 0.0949944 0.0
0.0818653 0.092997 0.0
0.085319 0.088867 0.0
0.0833721 0.0906124 0.0
0.083285 0.0889654 0.0
0.0916497 0.0831826 0.0
0.0929738 0.0818888 0.0
0.0863125 0.0873975 0.0
0.086145 0.0857484 0.0
0.0882995 0.0844584 0.0
0.089293 0.0829889 0.0
0.0962951 0.0811343 0.0
0.0949712 0.0798877 0.0
0.0981999 0.0792296 0.0
0.1 0.078 0.0
0.074 0.1 0.0
0.0753235 0.0981792 0.0
0.0766393 0.0964232 0.0
0.0776533 0.0946344 0.0
0.0786398 0.0931339 0.0
0.0811689 0.0910815 0.0
0.0799408 0.0923527 0.0
0.0841357 0.0870609 0.0
0.0812993 0.0890615 0.0
0.0826102 0.0871347 0.0
0.0910465 0.0812043 0.0
0.0923179 0.0799761 0.0
0.0846938 0.085524 0.0
0.0859776 0.0840993 0.0
0.0875516 0.0827196 0.0
0.0885828 0.0811322 0.0
0.0935282 0.0787601 0.0
0.0963997 0.0784591 0.0
0.0945996 0.0776887 0.0
0.0981998 0.0773313 0.0
0.1 0.076 0.0
0.072 0.1 0.0
0.07 0.1 0.0
0.073323 0.0981371 0.0
0.074647 0.0963585 0.0
0.0759589 0.0946348 0.0
0.0768711 0.0928459 0.0
0.0780163 0.0917083 0.0
0.0796271 0.0907551 0.0
0.0829524 0.0852547 0.0
0.081411 0.0860746 0.0
0.0793135 0.0891575 0.0
0.0803623 0.0876161 0.0
0.068 0.1 0.0
0.066 0.1 0.0
0.0913145 0.0779826 0.0
0.0904579 0.0792736 0.0
0.0843813 0.0838525 0.0
0.0858102 0.0824503 0.0
0.0834832 0.0826837 0.0
0.0865836 0.0812597 0.0
0.0878945 0.0793329 0.0
0.0927995 0.0769182 0.0
0.0963476 0.0764706 0.0
0.0945215 0.0757059 0.0
0.0982323 0.0752744 0.0
0.1 0.074 0.0
0.0714356 0.0981372 0.0
0.0694368 0.0980833 0.0
0.072646 0.0962741 0.0
0.0739706 0.0945377 0.0
0.0752785 0.0928464 0.0
0.0760918 0.091064 0.0
0.0773278 0.0892536 0.0
0.0817691 0.0834486 0.0
0.0804741 0.0846292 0.0
0.0794253 0.0861707 0.0
0.0783765 0.0877121 0.0
0.0675556 0.0980834 0.0
0.064 0.1 0.0
0.0655843 0.0981257 0.0
0.091006 0.0761506 0.0
0.0898692 0.0773429 0.0
0.0825851 0.0815148 0.0
0.0845843 0.0813873 0.0
0.0858079 0.0795889 0.0
0.0882434 0.0764729 0.0
0.0872062 0.0775337 0.0
0.092799 0.0753252 0.0
0.0964646 0.0745488 0.0
0.094697 0.0738232 0.0
0.0981393 0.0733487 0.0
0.0908935 0.0741866 0.0
0.1 0.072 0.0
0.062 0.1 0.0
0.0708711 0.0962744 0.0
0.0690961 0.0962744 0.0
0.0722012 0.0942498 0.0
0.07357 0.0924887 0.0
0.0746006 0.0910645 0.0
0.075342 0.0893497 0.0
0.0763908 0.0878082 0.0
0.0805859 0.0816424 0.0
0.0795371 0.0831839 0.0
0.0784883 0.0847253 0.0
0.0774396 0.0862668 0.0
0.0671112 0.0961669 0.0
0.0636856 0.0980155 0.0
0.0653487 0.0961669 0.0
0.06 0.1 0.0
0.058 0.1 0.0
0.0892805 0.0754121 0.0
0.0816346 0.080101 0.0
0.0837213 0.0798449 0.0
0.0849448 0.0780466 0.0
0.086518 0.0757344 0.0
0.0851251 0.0763762 0.0
0.0926948 0.0733685 0.0
0.0962786 0.0726975 0.0
0.0944178 0.0720462 0.0
0.0981393 0.0714612 0.0
0.0891431 0.0734537 0.0
0.090893 0.0727194 0.0
0.1 0.07 0.0
0.0617127 0.0980521 0.0
0.0703067 0.0944115 0.0
0.0686442 0.0944115 0.0
0.071292 0.0925482 0.0
0.0729706 0.090636 0.0
0.0739485 0.0893503 0.0
0.0748436 0.0877222 0.0
0.0758411 0.0861518 0.0
0.0807351 0.0789197 0.0
0.0789371 0.0809365 0.0
0.0775006 0.0812505 0.0
0.0772762 0.0831448 0.0
0.0761589 0.0845906 0.0
0.0666668 0.0942503 0.0
0.0633713 0.0960311 0.0
0.0650231 0.0942503 0.0
0.0598384 0.0980522 0.0
0.056 0.1 0.0
0.0577593 0.0981002 0.0
0.0875543 0.0733771 0.0
0.0826834 0.0785595 0.0
0.0837322 0.0770181 0.0
0.0858297 0.0739352 0.0
0.0843312 0.074886 0.0
0.0925571 0.0713949 0.0
0.0962786 0.0709225 0.0
0.0944178 0.0703837 0.0
0.0980942 0.0694696 0.0
0.0891425 0.0720889 0.0
0.0907393 0.0707587 0.0
0.0813341 0.0767876 0.0
0.0798356 0.0777384 0.0
0.1 0.068 0.0
0.0614253 0.0961042 0.0
0.0681923 0.0925487 0.0
0.0697422 0.0925487 0.0
0.0706307 0.0907283 0.0
0.0719782 0.0891753 0.0
0.0742427 0.0860369 0.0
0.0732964 0.0876361 0.0
0.0745604 0.0844756 0.0
0.0783371 0.0786892 0.0
0.0768035 0.07999 0.0
0.0760641 0.0815644 0.0
0.0748782 0.0829144 0.0
0.0662224 0.0923337 0.0
0.0627608 0.0941567 0.0
0.0643373 0.0925026 0.0
0.059474 0.0961611 0.0
0.054 0.1 0.0
0.0575186 0.0962003 0.0
0.055885 0.0981003 0.0
0.052 0.1 0.0
0.087392 0.0714583 0.0
0.0856424 0.0719877 0.0
0.0828326 0.0758368 0.0
0.0841043 0.0731967 0.0
0.0826341 0.0743587 0.0
0.0925571 0.069845 0.0
0.0961885 0.0689391 0.0
0.0942827 0.0684087 0.0
0.0981459 0.0675033 0.0
0.0889558 0.0701344 0.0
0.0910144 0.068939 0.0
0.0773609 0.0774753 0.0
0.0798699 0.0749668 0.0
0.0786154 0.0762211 0.0
0.1 0.066 0.0
0.061138 0.0941563 0.0
0.0677508 0.0907289 0.0
0.0691908 0.0907289 0.0
0.0699818 0.0889427 0.0
0.0713298 0.0874301 0.0
0.0726442 0.085922 0.0
0.0734351 0.0835611 0.0
0.0761064 0.0787296 0.0
0.074852 0.0799839 0.0
0.0735975 0.0812382 0.0
0.072343 0.0824925 0.0
0.0657925 0.09048 0.0
0.0643824 0.09048 0.0
0.0623482 0.0922109 0.0
0.059211 0.0942417 0.0
0.0572778 0.0943005 0.0
0.0539002 0.0979931 0.0
0.0557701 0.0962006 0.0
0.0520338 0.0979933 0.0
0.0500555 0.0979956 0.0
0.05 0.1 0.0
0.048 0.1 0.0
0.0871723 0.0695102 0.0
0.0861023 0.0702953 0.0
0.083892 0.0712547 0.0
0.0823788 0.0724582 0.0
0.0808425 0.073657 0.0
0.0925831 0.0675379 0.0
0.0962918 0.0670066 0.0
0.0944377 0.0665098 0.0
0.0980837 0.0655055 0.0
0.0892839 0.0683495 0.0
0.0875534 0.06776 0.0
0.0905337 0.0673652 0.0
0.0758237 0.0763162 0.0
0.0774625 0.0753517 0.0
0.07868 0.0739112 0.0
0.1 0.064 0.0
0.060851 0.0922104 0.0
0.0673176 0.0889434 0.0
0.0681088 0.0871579 0.0
0.0698663 0.0867863 0.0
0.0706814 0.0856849 0.0
0.0719921 0.0842078 0.0
0.0708684 0.0823559 0.0
0.0746972 0.0784522 0.0
0.0731609 0.079651 0.0
0.0725461 0.0782452 0.0
0.0716245 0.0808498 0.0
0.0653665 0.0886429 0.0
0.0635368 0.0888932 0.0
0.0619522 0.0903439 0.0
0.0605756 0.0903433 0.0
0.0589483 0.0923241 0.0
0.0570374 0.0924026 0.0
0.0556551 0.0943009 0.0
0.0538004 0.0959863 0.0
0.0520676 0.0959865 0.0
0.0555403 0.092403 0.0
0.0498877 0.0959769 0.0
0.0480775 0.0979886 0.0
0.0481549 0.0959771 0.0
0.046 0.1 0.0
0.0461986 0.0981069 0.0
0.0851154 0.0683851 0.0
0.0844079 0.0695998 0.0
0.0821664 0.0705321 0.0
0.0807242 0.0708401 0.0
0.079958 0.0719419 0.0
0.0858229 0.0671705 0.0
0.0925836 0.0660131 0.0
0.0960734 0.0651996 0.0
0.094251 0.0645164 0.0
0.0981223 0.0635333 0.0
0.0887071 0.0668568 0.0
0.0868804 0.0663484 0.0
0.0907903 0.0655327 0.0
0.07749 0.0728556 0.0
0.0782817 0.0715413 0.0
0.074444 0.076281 0.0
0.0755226 0.0747991 0.0
0.0765063 0.0738274 0.0
0.1 0.062 0.0
0.0836054 0.067253 0.0
0.059199 0.0903439 0.0
0.0661227 0.086805 0.0
0.0671334 0.0851697 0.0
0.068684 0.0853714 0.0
0.070033 0.0839397 0.0
0.0701861 0.0811379 0.0
0.0693938 0.0822192 0.0
0.0730644 0.0762458 0.0
0.0708394 0.0777672 0.0
0.0709073 0.0792097 0.0
0.0695038 0.0799199 0.0
0.0621403 0.0882598 0.0
0.0646306 0.0869508 0.0
0.0631384 0.0870966 0.0
0.0603001 0.0884763 0.0
0.0568066 0.0905816 0.0
0.0554301 0.0905822 0.0
0.0537005 0.0939794 0.0
0.0517657 0.0939864 0.0
0.0540457 0.0919478 0.0
0.0528297 0.0910149 0.0
0.0482324 0.0939657 0.0
0.0498315 0.0939653 0.0
0.0465959 0.0943207 0.0
0.0463973 0.0962138 0.0
0.044 0.1 0.0
0.0442202 0.0980915 0.0
0.0444404 0.096183 0.0
0.0827376 0.0689142 0.0
0.0804993 0.0689754 0.0
0.0790734 0.0702269 0.0
0.0850537 0.06584 0.0
0.0923365 0.0640224 0.0
0.0961673 0.0632625 0.0
0.094251 0.0628937 0.0
0.0981224 0.0616591 0.0
0.0890131 0.0650566 0.0
0.087236 0.0645805 0.0
0.090267 0.0640159 0.0
0.0818745 0.0667518 0.0
0.0773786 0.0703181 0.0
0.0763001 0.0718001 0.0
0.0741429 0.0747639 0.0
0.0752215 0.073282 0.0
0.1 0.06 0.0
0.0832586 0.0653403 0.0
0.0584441 0.0886446 0.0
0.0720929 0.0751233 0.0
0.0655829 0.0849679 0.0
0.0660181 0.0835869 0.0
0.0680351 0.0835858 0.0
0.068165 0.081348 0.0
0.0707715 0.0763246 0.0
0.0694501 0.0775259 0.0
0.0681386 0.0788409 0.0
0.0611604 0.0866101 0.0
0.0641614 0.085134 0.0
0.06274 0.0853 0.0
0.0588893 0.0866101 0.0
0.0565759 0.0887606 0.0
0.0540567 0.0900132 0.0
0.0527978 0.0890869 0.0
0.0516885 0.0920033 0.0
0.0516136 0.090082 0.0
0.049776 0.0919753 0.0
0.0463778 0.0923674 0.0
0.048309 0.0919758 0.0
[...]
POINT_DATA 3368
VECTORS u float
0.0281762 0.0261977 0.0
0.0282026 0.0257931 0.0
0.0276098 0.0261842 0.0
0.0270327 0.0261696 0.0
0.0282305 0.0253823 0.0
0.0276327 0.0255623 0.0
0.0273294 0.0258647 0.0
0.0268873 0.025849 0.0
0.0264459 0.0261545 0.0
0.02826 0.0249642 0.0
0.02829 0.0245379 0.0
0.0277939 0.0252541 0.0
0.0283193 0.0241031 0.0
0.0270401 0.0253202 0.0
0.0266371 0.0255887 0.0
0.0262399 0.0258618 0.0
0.025849 0.026139 0.0
0.0283475 0.0236591 0.0
0.0278543 0.0243769 0.0
0.0277634 0.0247874 0.0
0.0268025 0.0248662 0.0
0.0272471 0.0250422 0.0
0.027849 0.023946 0.0
0.0263496 0.0251721 0.0
0.0260846 0.0255222 0.0
0.0256038 0.0258027 0.0
0.0252413 0.0261235 0.0
0.028372 0.0232046 0.0
0.0278798 0.0234396 0.0
0.0263487 0.0246848 0.0
0.0273651 0.0242381 0.0
0.0268889 0.0245366 0.0
0.027401 0.0236801 0.0
0.0259565 0.0249395 0.0
0.0255073 0.025464 0.0
0.0250614 0.0257833 0.0
0.0246225 0.0261083 0.0
0.0283893 0.0227389 0.0
0.0278878 0.0230136 0.0
0.0274029 0.0232956 0.0
0.0260083 0.0244358 0.0
0.0264675 0.0241775 0.0
0.0269309 0.0239257 0.0
0.026929 0.0235847 0.0
0.0255518 0.0246985 0.0
0.0251011 0.0249652 0.0
0.0253783 0.0243498 0.0
0.0248161 0.0254784 0.0
0.0246436 0.0251079 0.0
0.0244004 0.0257827 0.0
0.0239907 0.0260929 0.0
0.0283972 0.0222606 0.0
0.026991 0.0230608 0.0
0.0279132 0.0225206 0.0
0.0274464 0.0227869 0.0
0.0259221 0.0240287 0.0
0.0264007 0.0237578 0.0
0.0265419 0.0233416 0.0
0.0247774 0.0245144 0.0
0.0243464 0.0248157 0.0
0.0252017 0.0239909 0.0
0.0246307 0.0241076 0.0
0.0242034 0.0254256 0.0
0.0239205 0.0251192 0.0
0.0237705 0.0257474 0.0
0.0233448 0.0260764 0.0
0.0283891 0.0217715 0.0
0.0278896 0.0220346 0.0
0.0264737 0.0228832 0.0
0.0269367 0.0225918 0.0
0.0274063 0.0223098 0.0
0.0256435 0.0236562 0.0
0.0260102 0.0231817 0.0
0.024178 0.0244215 0.0
0.0237283 0.0247374 0.0
0.0251414 0.0236285 0.0
0.0246331 0.0236032 0.0
0.0239854 0.0238843 0.0
0.0235011 0.0254267 0.0
0.0232852 0.0250543 0.0
0.0231289 0.025752 0.0
0.022683 0.0260573 0.0
0.0283636 0.0212794 0.0
0.0277358 0.0214518 0.0
0.0258936 0.0227013 0.0
0.0272606 0.0217217 0.0
0.0262415 0.0223586 0.0
0.0266766 0.0220788 0.0
0.0253298 0.0231304 0.0
0.0252755 0.0226253 0.0
0.0234824 0.024229 0.0
0.0230452 0.0245383 0.0
0.0246398 0.0230868 0.0
0.0239839 0.0231928 0.0
0.0233151 0.0236567 0.0
0.022849 0.0253754 0.0
0.0226159 0.0248411 0.0
0.0224219 0.0256996 0.0
0.0220024 0.026034 0.0
0.0283145 0.020778 0.0
0.0276928 0.0209629 0.0
0.0270936 0.0211144 0.0
0.0257758 0.0222014 0.0
0.0266368 0.0213952 0.0
0.0260014 0.021812 0.0
0.0246467 0.0225507 0.0
0.0252198 0.0220987 0.0
0.0246606 0.0220028 0.0
0.0227599 0.0240333 0.0
0.0223338 0.0243356 0.0
0.0241541 0.0227653 0.0
0.0235719 0.0226668 0.0
0.023142 0.0232059 0.0
0.0226241 0.0234299 0.0
0.0222063 0.0251371 0.0
0.0216878 0.0247856 0.0
0.0216307 0.0255707 0.0
0.0213093 0.026004 0.0
0.0282346 0.0202723 0.0
0.0276134 0.0204363 0.0
0.0270425 0.0206309 0.0
0.0264658 0.0207628 0.0
0.0259921 0.020926 0.0
0.0253531 0.0215119 0.0
0.0257563 0.0212438 0.0
0.0240135 0.0221585 0.0
0.0246775 0.0214397 0.0
0.0240272 0.0217329 0.0
0.0220099 0.0238378 0.0
0.0215951 0.0241304 0.0
0.0234809 0.0222614 0.0
0.022977 0.022574 0.0
0.0224873 0.0229651 0.0
0.0219071 0.0232036 0.0
0.0211865 0.0244034 0.0
0.0212426 0.0251051 0.0
0.0208395 0.0246408 0.0
0.0209466 0.0255305 0.0
0.0206003 0.0259635 0.0
0.0281165 0.0197693 0.0
0.027955 0.019272 0.0
0.0275019 0.0199018 0.0
0.0269422 0.0200789 0.0
0.0264134 0.0202856 0.0
0.0258523 0.0203968 0.0
0.025508 0.0206451 0.0
0.0252238 0.0210514 0.0
0.0233726 0.0217578 0.0
0.0236523 0.0213366 0.0
0.0246887 0.0208657 0.0
0.0241792 0.021094 0.0
0.0277445 0.0187863 0.0
0.0274742 0.0183197 0.0
0.0207715 0.0238356 0.0
0.0212467 0.0236471 0.0
0.0228688 0.022121 0.0
0.0223626 0.0224859 0.0
0.0224352 0.0218345 0.0
0.0219157 0.0226738 0.0
0.0211856 0.0229865 0.0
0.0204269 0.0241804 0.0
0.020492 0.0250426 0.0
0.0200623 0.0245696 0.0
0.0201903 0.0254851 0.0
0.0198796 0.025908 0.0
0.0273794 0.0194037 0.0
0.0271921 0.0188763 0.0
0.0268103 0.0195161 0.0
0.0263031 0.0197098 0.0
0.0258067 0.0199316 0.0
0.0252627 0.0200254 0.0
0.0246976 0.0202681 0.0
0.022715 0.0213489 0.0
0.0231475 0.0209968 0.0
0.0236842 0.0207404 0.0
0.0242008 0.0204961 0.0
0.026993 0.0183942 0.0
0.0271379 0.0178797 0.0
0.0267515 0.0179192 0.0
0.020013 0.0237183 0.0
0.0204472 0.0234603 0.0
0.0219961 0.0215418 0.0
0.021947 0.0221189 0.0
0.0212444 0.0224301 0.0
0.0200178 0.0230225 0.0
0.0204305 0.0227719 0.0
0.0197852 0.0241395 0.0
0.019763 0.025016 0.0
0.019323 0.024556 0.0
0.0194576 0.0253972 0.0
0.0191818 0.0236444 0.0
0.0191519 0.0258342 0.0
0.0267342 0.0174769 0.0
0.0266943 0.0190259 0.0
0.0265483 0.0185432 0.0
0.0261229 0.0191661 0.0
0.0256288 0.0193905 0.0
0.0252242 0.0195706 0.0
0.0246959 0.0196605 0.0
0.0242191 0.0198786 0.0
0.0220545 0.0209359 0.0
0.0226362 0.0206537 0.0
0.0231906 0.0203801 0.0
0.0237189 0.0201184 0.0
0.026315 0.0179961 0.0
0.0264183 0.0174609 0.0
0.026101 0.0175449 0.0
0.0262526 0.0171197 0.0
0.0256905 0.0168112 0.0
0.0196086 0.0232746 0.0
0.0214408 0.0212227 0.0
0.0213342 0.0218438 0.0
0.0206015 0.0221706 0.0
0.0196469 0.0225668 0.0
0.0198908 0.0221974 0.0
0.018971 0.0240589 0.0
0.0190194 0.024904 0.0
0.0185721 0.0244283 0.0
0.0187394 0.0253191 0.0
0.0187585 0.0232023 0.0
0.0185516 0.0236087 0.0
0.0184196 0.0257377 0.0
0.0260636 0.0170507 0.0
0.0260529 0.0186391 0.0
0.025924 0.018167 0.0
0.025545 0.0187074 0.0
0.0250408 0.0190236 0.0
0.0246691 0.0192178 0.0
0.024178 0.0193772 0.0
0.0236832 0.0195941 0.0
0.0209806 0.0209289 0.0
0.0218071 0.0203912 0.0
0.0219511 0.0199169 0.0
0.0226508 0.0199157 0.0
0.0231635 0.0196082 0.0
0.0256929 0.0175921 0.0
0.0257788 0.0170411 0.0
0.0255109 0.0171519 0.0
0.0256565 0.0166975 0.0
0.0250381 0.0165689 0.0
0.0251472 0.0163735 0.0
0.0186296 0.0228037 0.0
0.0208061 0.0215177 0.0
0.0201515 0.0218102 0.0
0.0188162 0.0223657 0.0
0.0192149 0.0219608 0.0
0.0181194 0.0239642 0.0
0.0183152 0.0248295 0.0
0.0178844 0.0243615 0.0
0.0179708 0.0252056 0.0
0.0181387 0.023173 0.0
0.0176738 0.0235171 0.0
0.0200517 0.0210886 0.0
0.0204889 0.0206245 0.0
0.0176943 0.0256135 0.0
0.0254669 0.016626 0.0
0.025343 0.0177847 0.0
0.0254535 0.0182429 0.0
0.0249718 0.018299 0.0
0.0245701 0.0185631 0.0
0.0236422 0.0190542 0.0
0.0241337 0.0188586 0.0
0.023136 0.0190511 0.0
0.0209325 0.0201425 0.0
0.0214946 0.0196345 0.0
0.0220988 0.0194259 0.0
0.0226006 0.0190703 0.0
0.0251169 0.0171809 0.0
0.0251889 0.0165665 0.0
0.0249719 0.0166861 0.0
0.0251009 0.0162557 0.0
0.0243006 0.0163855 0.0
0.0246722 0.0159422 0.0
0.02461 0.0161367 0.0
0.0234778 0.0162549 0.0
0.0177374 0.0227413 0.0
0.0178998 0.0222987 0.0
0.0196202 0.0215396 0.0
0.0184234 0.0218918 0.0
0.018955 0.0214793 0.0
0.0174492 0.0239084 0.0
0.0175123 0.024708 0.0
0.0170483 0.0242365 0.0
0.017231 0.0250951 0.0
0.0172392 0.0230874 0.0
0.0168864 0.0235275 0.0
0.0204379 0.0197739 0.0
0.0192494 0.0206201 0.0
0.0198496 0.0202047 0.0
0.016986 0.0254551 0.0
0.0249381 0.0161979 0.0
0.0248087 0.0174048 0.0
0.0248996 0.0178476 0.0
0.0244326 0.0178877 0.0
0.0240374 0.0181741 0.0
0.023598 0.0184905 0.0
0.0228476 0.0185944 0.0
0.0210121 0.0193482 0.0
0.0215499 0.0189238 0.0
0.0220462 0.0185169 0.0
0.0225085 0.0181168 0.0
0.024599 0.016774 0.0
0.0244738 0.0163645 0.0
0.0246664 0.0161183 0.0
0.024617 0.0158261 0.0
0.0242411 0.0155121 0.0
0.0239539 0.0159253 0.0
0.0242308 0.0157133 0.0
0.0233199 0.0158306 0.0
0.0225864 0.0157874 0.0
0.0225736 0.016239 0.0
0.0215834 0.0162808 0.0
0.0168018 0.0226557 0.0
0.017103 0.0224091 0.0
0.0174755 0.0218291 0.0
0.0180343 0.0214067 0.0
0.0186213 0.0209286 0.0
0.0164651 0.0238141 0.0
0.0167602 0.0246167 0.0
0.0162863 0.0241648 0.0
0.0164806 0.0249243 0.0
0.0164421 0.02312 0.0
0.0159991 0.0227147 0.0
0.0161362 0.0233629 0.0
0.0199928 0.0191946 0.0
0.0194943 0.0197935 0.0
0.0187818 0.0202302 0.0
0.0163022 0.0252608 0.0
0.0244574 0.0157626 0.0
0.0243069 0.0170202 0.0
0.0238667 0.017048 0.0
0.023816 0.0176097 0.0
0.0235087 0.0177805 0.0
0.0230609 0.0181173 0.0
0.022487 0.0175439 0.0
0.0209543 0.0188093 0.0
0.0214768 0.0182615 0.0
0.0209578 0.0179464 0.0
0.0219561 0.0177242 0.0
0.0241066 0.0163644 0.0
0.0240223 0.0158538 0.0
0.0241807 0.0156786 0.0
0.0240074 0.0153459 0.0
0.0241733 0.0153901 0.0
0.0238381 0.015077 0.0
0.0238786 0.0152945 0.0
0.0236554 0.01548 0.0
0.0231312 0.0153884 0.0
0.0235313 0.0148692 0.0
0.022417 0.0153442 0.0
0.0217615 0.01583 0.0
0.0218218 0.0154119 0.0
0.0205102 0.0163998 0.0
0.0209156 0.0159811 0.0
0.0160941 0.022148 0.0
0.016669 0.0219648 0.0
0.0170591 0.0213559 0.0
0.0171987 0.0209158 0.0
0.017772 0.0206625 0.0
0.015552 0.0223014 0.0
0.0158074 0.0237405 0.0
0.0160245 0.0244362 0.0
0.0154561 0.0239943 0.0
0.0157822 0.024752 0.0
0.0156909 0.0229498 0.0
0.015245 0.0225343 0.0
0.0153455 0.0233443 0.0
0.0182764 0.0198004 0.0
0.0175762 0.0201037 0.0
0.0200395 0.0186565 0.0
0.0193121 0.0190614 0.0
0.0188027 0.0194353 0.0
0.0156594 0.0250226 0.0
0.0154023 0.0217573 0.0
0.0238167 0.0150319 0.0
0.023687 0.01633 0.0
0.023302 0.0164506 0.0
0.0233935 0.0170342 0.0
0.0229838 0.0173754 0.0
0.0220914 0.0171739 0.0
0.0224565 0.0169591 0.0
0.0200937 0.0180764 0.0
0.0208363 0.0171991 0.0
0.0213915 0.0173215 0.0
0.0216879 0.0167879 0.0
0.0237444 0.0153455 0.0
0.0236391 0.0158632 0.0
0.0235649 0.0154229 0.0
0.0235897 0.0148997 0.0
0.0234687 0.0146364 0.0
0.0232134 0.0144566 0.0
0.0233493 0.0150289 0.0
0.0228344 0.014937 0.0
0.0231414 0.0146112 0.0
0.0227329 0.0143163 0.0
0.0217992 0.0149732 0.0
0.0222795 0.0149175 0.0
0.0212774 0.0151664 0.0
0.0211711 0.015572 0.0
0.0193736 0.0165805 0.0
0.0199895 0.0161706 0.0
0.0203931 0.0157647 0.0
0.0162381 0.0215236 0.0
0.0161847 0.0208708 0.0
0.0168611 0.0203914 0.0
0.0147935 0.022102 0.0
0.0149465 0.0235734 0.0
0.0153182 0.0242924 0.0
0.0148274 0.023872 0.0
0.0151508 0.0245472 0.0
0.0148879 0.0229574 0.0
0.0144272 0.0225711 0.0
0.0146146 0.0231638 0.0
0.0150099 0.021298 0.0
0.0169174 0.0197895 0.0
0.0177605 0.0193622 0.0
0.0193535 0.0185014 0.0
0.018579 0.0189284 0.0
0.015075 0.0247375 0.0
0.0143547 0.0216655 0.0
0.0233756 0.0145134 0.0
0.0196343 0.0176179 0.0
0.0231931 0.0158711 0.0
0.022833 0.0158254 0.0
0.0228681 0.0165864 0.0
0.0221914 0.0163786 0.0
0.0202351 0.0170869 0.0
0.020801 0.0165619 0.0
0.0213372 0.0160972 0.0
0.0232823 0.0147485 0.0
0.0231651 0.0154072 0.0
0.0231151 0.0149726 0.0
0.0230367 0.0141562 0.0
0.0231079 0.0141884 0.0
0.022853 0.0141632 0.0
0.0224572 0.0138587 0.0
0.0225959 0.0144785 0.0
0.0223409 0.0140372 0.0
0.0220975 0.0144794 0.0
0.0211595 0.0147651 0.0
0.021699 0.0145316 0.0
0.0181858 0.0168217 0.0
0.0206076 0.0153552 0.0
0.0207069 0.0149461 0.0
0.0190281 0.0164243 0.0
0.0195925 0.016028 0.0
0.0199274 0.0156258 0.0
0.0158031 0.0203321 0.0
0.0154143 0.0208297 0.0
0.0180248 0.0186332 0.0
0.0146213 0.0207921 0.0
0.0139683 0.0221702 0.0
0.0143374 0.0234773 0.0
0.0146478 0.024118 0.0
0.0141493 0.0237268 0.0
0.0145255 0.0242715 0.0
0.0141543 0.0227729 0.0
0.0136914 0.0223811 0.0
0.0138717 0.0231099 0.0
0.0139225 0.0212118 0.0
0.0154166 0.0197353 0.0
0.0161568 0.0191657 0.0
0.0171101 0.0189007 0.0
0.0185803 0.0180224 0.0
0.0186701 0.0169945 0.0
0.0145457 0.0244081 0.0
0.0135099 0.0217637 0.0
0.0227493 0.0137148 0.0
0.0196444 0.016764 0.0
0.0227331 0.0152596 0.0
0.0223386 0.0154092 0.0
0.021814 0.0156668 0.0
0.0201319 0.0161395 0.0
0.0207233 0.0156383 0.0
0.0212308 0.01517 0.0
0.0229618 0.0142266 0.0
0.02283 0.0144262 0.0
0.0226156 0.0147044 0.0
0.0222178 0.0130649 0.0
0.0224491 0.0133406 0.0
0.0226315 0.0136929 0.0
0.0225463 0.0136969 0.0
0.0220516 0.0135557 0.0
0.0220281 0.0140243 0.0
0.0215463 0.0140851 0.0
0.0210752 0.0143497 0.0
0.0205527 0.0145795 0.0
0.0169559 0.0171125 0.0
0.0180426 0.016729 0.0
0.02011 0.0152139 0.0
0.0187755 0.0163437 0.0
0.019339 0.0159136 0.0
0.0196406 0.0154963 0.0
0.0146563 0.0202317 0.0
0.0177602 0.018008 0.0
0.0137474 0.0204868 0.0
0.01293 0.0220299 0.0
0.0136537 0.0233623 0.0
0.0140349 0.0238701 0.0
0.0135271 0.0234982 0.0
0.0139856 0.0239885 0.0
0.0134041 0.0227456 0.0
0.0129307 0.0223816 0.0
0.0131802 0.0230264 0.0
0.0142153 0.019608 0.0
0.0130496 0.0213314 0.0
0.0130123 0.0208703 0.0
0.0150021 0.0190552 0.0
0.016113 0.0184371 0.0
0.0168063 0.0178867 0.0
0.0185388 0.0161192 0.0
0.0174878 0.017317 0.0
0.0179347 0.0166977 0.0
0.0141076 0.0240226 0.0
0.0124196 0.0216245 0.0
0.0222254 0.0132058 0.0
0.0193799 0.0156835 0.0
0.0217496 0.0125315 0.0
0.0222417 0.0148314 0.0
0.0218015 0.0149822 0.0
0.0212199 0.0145352 0.0
0.0200233 0.0151469 0.0
0.0205796 0.0146359 0.0
0.02252 0.0137955 0.0
0.0223649 0.0139478 0.0
0.0221253 0.0142597 0.0
0.0218615 0.0125634 0.0
0.0220798 0.012853 0.0
0.0222201 0.0132186 0.0
0.0218939 0.0130832 0.0
0.0215272 0.0130478 0.0
0.0216293 0.0135498 0.0
0.0201726 0.0148129 0.0
0.0211166 0.0138769 0.0
0.0202413 0.0143411 0.0
0.0206441 0.0140941 0.0
0.0156918 0.0174507 0.0
0.014409 0.017817 0.0
0.0169827 0.0171037 0.0
0.0178832 0.0167527 0.0
0.0197903 0.0150808 0.0
0.0184991 0.0163947 0.0
0.0190589 0.0158794 0.0
0.0192725 0.0154718 0.0
0.0132723 0.0199113 0.0
0.0129334 0.0204158 0.0
0.0121623 0.0220459 0.0
0.013029 0.0231528 0.0
0.0134441 0.0236147 0.0
0.0129823 0.0232997 0.0
0.013559 0.0236759 0.0
0.0125473 0.0228303 0.0
0.0122252 0.0223481 0.0
0.0127072 0.0226879 0.0
0.0139336 0.0186961 0.0
0.0127709 0.0192335 0.0
0.0115012 0.0211834 0.0
0.0123466 0.0210789 0.0
0.0120939 0.0203506 0.0
0.0145591 0.0182839 0.0
0.0185227 0.015191 0.0
0.0156532 0.0176328 0.0
0.016405 0.0169971 0.0
0.0178413 0.0157695 0.0
0.0171324 0.0163742 0.0
0.0137664 0.0235848 0.0
0.0112278 0.0216439 0.0
0.0215989 0.0125544 0.0
0.0192275 0.0146136 0.0
0.0214011 0.0120793 0.0
0.0216118 0.0140933 0.0
0.0209955 0.0135875 0.0
0.02045 0.0138438 0.0
0.0198269 0.0138026 0.0
0.0213132 0.0118142 0.0
0.0218969 0.0131964 0.0
0.0217069 0.0135245 0.0
0.0215955 0.0121815 0.0
0.0217402 0.0125215 0.0
0.0215844 0.0125573 0.0
0.0212492 0.0125148 0.0
0.0211268 0.0131175 0.0
0.0209505 0.0134144 0.0
0.0198373 0.0146432 0.0
0.0200632 0.0139301 0.0
0.0205054 0.0136305 0.0
0.0131345 0.018207 0.0
0.01187 0.0186146 0.0
0.0159963 0.0174762 0.0
0.0149985 0.0178859 0.0
0.00472116 0.0212269 0.0
0.0106359 0.0190241 0.0
0.00546471 0.0209168 0.0
0.00633426 0.0205703 0.0
0.00945895 0.019433 0.0
0.00730137 0.0202131 0.0
0.00834647 0.0198324 0.0
0.0171152 0.0171266 0.0
0.0178929 0.0167674 0.0
0.0193557 0.0150428 0.0
0.0184089 0.0163973 0.0
0.0187191 0.0160225 0.0
0.0188852 0.0156344 0.0
0.00399972 0.021509 0.0
0.00674201 0.0214352 0.0
0.0034255 0.0217638 0.0
0.0116038 0.0197363 0.0
0.0114708 0.0219278 0.0
0.012483 0.0229933 0.0
0.0130273 0.0233668 0.0
0.0125385 0.0230775 0.0
0.0132166 0.0233048 0.0
0.0113534 0.0221499 0.0
0.0119902 0.0227007 0.0
0.0118847 0.0224845 0.0
0.010798 0.021088 0.0
0.0105972 0.0214161 0.0
0.0133652 0.017868 0.0
0.0130148 0.0186719 0.0
0.012052 0.018656 0.0
0.0110114 0.0207059 0.0
0.0105292 0.0201614 0.0
0.0184897 0.0139274 0.0
0.0143175 0.017399 0.0
0.0175273 0.0148472 0.0
0.014846 0.0166685 0.0
0.0157737 0.0160227 0.0
0.0166584 0.0154187 0.0
0.0135336 0.0230969 0.0
0.0108105 0.0218089 0.0
0.0211124 0.0119737 0.0
0.0189362 0.01344 0.0
0.0210205 0.0114977 0.0
0.0208685 0.011218 0.0
0.0211463 0.0129885 0.0
0.0203103 0.0130355 0.0
0.019489 0.0126662 0.0
0.0191312 0.0119287 0.0
0.0211545 0.0116126 0.0
0.0213783 0.0126285 0.0
0.0212802 0.0119522 0.0
0.0209013 0.0124382 0.0
0.0207831 0.0119773 0.0
0.0207715 0.0129232 0.0
0.0203521 0.0131399 0.0
0.0193022 0.0147522 0.0
0.0196203 0.0142938 0.0
0.0199257 0.0134458 0.0
0.0139363 0.0183172 0.0
0.0129779 0.018735 0.0
0.0163555 0.0175242 0.0
0.0154463 0.0180039 0.0
0.00727359 0.021161 0.0
0.0120798 0.0191673 0.0
0.00791748 0.020814 0.0
0.00944393 0.0203912 0.0
0.0111117 0.0196033 0.0
0.0102886 0.0199972 0.0
0.017307 0.0171625 0.0
0.0178724 0.0168516 0.0
0.0189647 0.0152252 0.0
0.0182502 0.0164896 0.0
0.0184711 0.0161135 0.0
0.0185803 0.0157161 0.0
0.00213481 0.0223154 0.0
0.00246335 0.0221608 0.0
0.00292025 0.0219771 0.0
0.00881742 0.0214003 0.0
0.00640185 0.0217092 0.0
0.00582434 0.021937 0.0
0.0109627 0.0191938 0.0
0.010051 0.0195052 0.0
0.0120338 0.0228003 0.0
0.0109024 0.0220763 0.0
0.0126897 0.0230554 0.0
0.0122174 0.0228642 0.0
0.0129954 0.0229155 0.0
0.0115418 0.0225379 0.0
0.0113343 0.0223751 0.0
0.0100916 0.0209971 0.0
0.0101026 0.02143 0.0
0.0123801 0.0170094 0.0
0.0115165 0.0176922 0.0
0.0104673 0.0183079 0.0
0.00960439 0.0205101 0.0
0.00912685 0.0199297 0.0
0.0178401 0.0127426 0.0
0.0172935 0.0132805 0.0
0.0136512 0.0163349 0.0
0.0163357 0.0141545 0.0
0.0142103 0.0155455 0.0
0.0154026 0.0151543 0.0
0.0133698 0.0225599 0.0
0.0102597 0.0217513 0.0
0.0207654 0.0113905 0.0
0.0184482 0.0119832 0.0
0.0206052 0.0108857 0.0
0.0206047 0.0108848 0.0
0.0206697 0.0123515 0.0
0.0197277 0.0118169 0.0
0.0187942 0.0111913 0.0
0.020705 0.0112129 0.0
0.0207127 0.0116398 0.0
0.0205666 0.0124179 0.0
0.0204686 0.0114007 0.0
0.0203705 0.0118736 0.0
0.0201775 0.0126287 0.0
0.0197792 0.0129443 0.0
0.0191579 0.01447 0.0
0.019508 0.0138225 0.0
0.0146983 0.0184234 0.0
0.0140006 0.0188785 0.0
0.0165303 0.0176756 0.0
0.0159481 0.0180939 0.0
0.00927906 0.0210553 0.0
0.0131738 0.0193472 0.0
0.0105742 0.0206408 0.0
0.0117979 0.0201819 0.0
0.012528 0.0197522 0.0
0.017282 0.0173317 0.0
0.0177868 0.0169819 0.0
0.0187607 0.0151289 0.0
0.0181136 0.016624 0.0
0.0183084 0.0162475 0.0
0.0184359 0.015847 0.0
0.00193707 0.0225143 0.0
0.00190566 0.0224301 0.0
0.0107283 0.0212476 0.0
0.00451125 0.0224438 0.0
0.00509098 0.0223233 0.0
0.00562659 0.022148 0.0
0.0102439 0.0216282 0.0
0.00810329 0.0219192 0.0
0.00999553 0.0218391 0.0
0.00782454 0.0221024 0.0
0.00957078 0.0186907 0.0
0.00875575 0.019041 0.0
0.0117527 0.0226323 0.0
0.00814742 0.0194611 0.0
0.0112713 0.0223998 0.0
0.0124909 0.0227554 0.0
0.0105139 0.0219936 0.0
0.0119923 0.0225824 0.0
0.0114997 0.0224025 0.0
0.0128772 0.022487 0.0
0.0107716 0.0221647 0.0
0.0089702 0.0206149 0.0
0.00971116 0.0214263 0.0
0.00946761 0.0210548 0.0
0.0116907 0.0157446 0.0
0.0108701 0.0164754 0.0
0.00990688 0.017155 0.0
0.00919497 0.0176472 0.0
0.00844955 0.0201169 0.0
0.0171168 0.0112279 0.0
0.0158011 0.0125088 0.0
0.0163869 0.011698 0.0
0.0128098 0.0150495 0.0
0.0149363 0.0131219 0.0
0.0149056 0.0141968 0.0
0.0133927 0.0142235 0.0
0.0133953 0.0219767 0.0
0.0128647 0.0220498 0.0
0.00976012 0.0216492 0.0
0.0204021 0.0107702 0.0
0.0175582 0.010516 0.0
0.0201431 0.0102484 0.0
0.0200278 0.0101591 0.0
0.0201975 0.0103693 0.0
0.0201738 0.010503 0.0
0.0192037 0.0106169 0.0
0.0200562 0.0112341 0.0
0.0181083 0.00985089 0.0
0.0201187 0.0107566 0.0
0.0200808 0.0108298 0.0
0.0199899 0.0120841 0.0
0.0199326 0.0113918 0.0
0.019629 0.0124092 0.0
0.0193943 0.0133314 0.0
0.0187541 0.0146577 0.0
0.0190892 0.0140348 0.0
0 0.022569 0.0
0.0152288 0.0186559 0.0
0.0146992 0.0190702 0.0
0.0168323 0.0177475 0.0
0.0162221 0.018359 0.0
0.0117317 0.0208568 0.0
0.0140486 0.0195554 0.0
0.0126605 0.0204235 0.0
0.0135715 0.0199459 0.0
0.0174427 0.0173923 0.0
0.0177783 0.017136 0.0
0.0184685 0.0154206 0.0
0.0180109 0.0167726 0.0
0.0182017 0.0163069 0.0
0.00151892 0.0225641 0.0
0.00513665 0.0226216 0.0
0.00453508 0.0225571 0.0
0.006758 0.0225323 0.0
0.0122379 0.0211327 0.0
0.0118686 0.0214609 0.0
0.0085323 0.0224633 0.0
0.00786131 0.022305 0.0
0.0117549 0.0217919 0.0
0.00983481 0.0221068 0.0
0.0113528 0.0220218 0.0
0.00960688 0.0222558 0.0
0.00844027 0.0181092 0.0
0.00770652 0.0186831 0.0
0.010864 0.0221615 0.0
0.0123957 0.0223913 0.0
0.00756835 0.0192638 0.0
0.00786664 0.0199151 0.0
0.0109673 0.0221345 0.0
0.00927149 0.0213607 0.0
0.0118766 0.0222669 0.0
0.0101627 0.0218647 0.0
0.0113761 0.0221328 0.0
0.00949839 0.0215426 0.0
0.0123655 0.022044 0.0
0.0104579 0.0219281 0.0
0.00840877 0.0206888 0.0
0.00875048 0.0210577 0.0
0.010781 0.0141716 0.0
0.0100637 0.0149312 0.0
0.00927673 0.0156779 0.0
0.00864932 0.0163236 0.0
0.00797893 0.0169613 0.0
0.00775726 0.0202616 0.0
0.00715527 0.01916 0.0
0.013834 0.0115895 0.0
0.0160626 0.00978766 0.0
0.0153636 0.0103879 0.0
0.0145642 0.0108727 0.0
0.0116004 0.0134459 0.0
0.0130338 0.0122849 0.0
0.0124136 0.0127232 0.0