# vtk DataFile Version 2.0
Vtkoutput example
ASCII

DATASET UNSTRUCTURED_GRID
POINTS 36864 float
0.0201562 0.0201562 0.0
0.0204687 0.0201562 0.0
0.0207812 0.0201562 0.0
0.0210937 0.0201562 0.0
0.0214062 0.0201562 0.0
0.0217187 0.0201562 0.0
0.0220312 0.0201562 0.0
0.0223437 0.0201562 0.0
0.0226562 0.0201562 0.0
0.0229687 0.0201562 0.0
0.0232812 0.0201562 0.0
0.0235937 0.0201562 0.0
0.0239062 0.0201562 0.0
0.0242187 0.0201562 0.0
0.0245312 0.0201562 0.0
0.0248437 0.0201562 0.0
0.0251562 0.0201562 0.0
0.0254687 0.0201562 0.0
0.0257812 0.0201562 0.0
0.0260937 0.0201562 0.0
0.0264062 0.0201562 0.0
0.0267187 0.0201562 0.0
0.0270312 0.0201562 0.0
0.0273438 0.0201562 0.0
0.0276562 0.0201562 0.0
0.0279687 0.0201562 0.0
0.0282813 0.0201562 0.0
0.0285937 0.0201562 0.0
0.0289062 0.0201562 0.0
0.0292187 0.0201562 0.0
0.0295312 0.0201562 0.0
0.0298437 0.0201562 0.0
0.0301563 0.0201562 0.0
0.0304687 0.0201562 0.0
0.0307812 0.0201562 0.0
0.0310937 0.0201562 0.0
0.0314062 0.0201562 0.0
0.0317188 0.0201562 0.0
0.0320312 0.0201562 0.0
0.0323437 0.0201562 0.0
0.0326562 0.0201562 0.0
0.0329688 0.0201562 0.0
0.0332812 0.0201562 0.0
0.0335937 0.0201562 0.0
0.0339062 0.0201562 0.0
0.0342187 0.0201562 0.0
0.0345312 0.0201562 0.0
0.0348437 0.0201562 0.0
0.0351562 0.0201562 0.0
0.0354688 0.0201562 0.0
0.0357813 0.0201562 0.0
0.0360938 0.0201562 0.0
0.0364063 0.0201562 0.0
0.0367188 0.0201562 0.0
0.0370313 0.0201562 0.0
0.0373438 0.0201562 0.0
0.0376563 0.0201562 0.0
0.0379687 0.0201562 0.0
0.0382812 0.0201562 0.0
0.0385938 0.0201562 0.0
0.0389062 0.0201562 0.0
0.0392187 0.0201562 0.0
0.0395313 0.0201562 0.0
0.0398437 0.0201562 0.0
0.0401563 0.0201562 0.0
0.0404687 0.0201562 0.0
0.0407812 0.0201562 0.0
0.0410937 0.0201562 0.0
0.0414062 0.0201562 0.0
0.0417187 0.0201562 0.0
0.0420312 0.0201562 0.0
0.0423437 0.0201562 0.0
0.0426562 0.0201562 0.0
0.0429688 0.0201562 0.0
0.0432813 0.0201562 0.0
0.0435938 0.0201562 0.0
0.0439063 0.0201562 0.0
0.0442188 0.0201562 0.0
0.0445313 0.0201562 0.0
0.0448438 0.0201562 0.0
0.0451562 0.0201562 0.0
0.0454688 0.0201562 0.0
0.0457813 0.0201562 0.0
0.0460938 0.0201562 0.0
0.0464062 0.0201562 0.0
0.0467188 0.0201562 0.0
0.0470312 0.0201562 0.0
0.0473438 0.0201562 0.0
0.0476563 0.0201562 0.0
0.0479687 0.0201562 0.0
0.0482813 0.0201562 0.0
0.0485938 0.0201562 0.0
0.0489062 0.0201562 0.0
0.0492188 0.0201562 0.0
0.0495313 0.0201562 0.0
0.0498437 0.0201562 0.0
0.0501562 0.0201562 0.0
0.0504688 0.0201562 0.0
0.0507812 0.0201562 0.0
0.0510938 0.0201562 0.0
0.0514063 0.0201562 0.0
0.0517187 0.0201562 0.0
0.0520313 0.0201562 0.0
0.0523438 0.0201562 0.0
0.0526563 0.0201562 0.0
0.0529687 0.0201562 0.0
0.0532813 0.0201562 0.0
0.0535938 0.0201562 0.0
0.0539063 0.0201562 0.0
0.0542187 0.0201562 0.0
0.0545313 0.0201562 0.0
0.0548438 0.0201562 0.0
0.0551563 0.0201562 0.0
0.0554688 0.0201562 0.0
0.0557812 0.0201562 0.0
0.0560937 0.0201562 0.0
0.0564062 0.0201562 0.0
0.0567188 0.0201562 0.0
0.0570313 0.0201562 0.0
0.0573438 0.0201562 0.0
0.0576562 0.0201562 0.0
0.0579687 0.0201562 0.0
0.0582813 0.0201562 0.0
0.0585938 0.0201562 0.0
0.0589063 0.0201562 0.0
0.0592188 0.0201562 0.0
0.0595313 0.0201562 0.0
0.0598438 0.0201562 0.0
0.0601563 0.0201562 0.0
0.0604688 0.0201562 0.0
0.0607813 0.0201562 0.0
0.0610938 0.0201562 0.0
0.0614062 0.0201562 0.0
0.0617188 0.0201562 0.0
0.0620313 0.0201562 0.0
0.0623438 0.0201562 0.0
0.0626562 0.0201562 0.0
0.0629688 0.0201562 0.0
0.0632813 0.0201562 0.0
0.0635938 0.0201562 0.0
0.0639062 0.0201562 0.0
0.0642187 0.0201562 0.0
0.0645313 0.0201562 0.0
0.0648438 0.0201562 0.0
0.0651562 0.0201562 0.0
0.0654688 0.0201562 0.0
0.0657812 0.0201562 0.0
0.0660937 0.0201562 0.0
0.0664062 0.0201562 0.0
0.0667188 0.0201562 0.0
0.0670313 0.0201562 0.0
0.0673438 0.0201562 0.0
0.0676563 0.0201562 0.0
0.0679688 0.0201562 0.0
0.0682813 0.0201562 0.0
0.0685938 0.0201562 0.0
0.0689063 0.0201562 0.0
0.0692187 0.0201562 0.0
0.0695313 0.0201562 0.0
0.0698438 0.0201562 0.0
0.0701563 0.0201562 0.0
0.0704687 0.0201562 0.0
0.0707813 0.0201562 0.0
0.0710938 0.0201562 0.0
0.0714063 0.0201562 0.0
0.0717187 0.0201562 0.0
0.0720313 0.0201562 0.0
0.0723437 0.0201562 0.0
0.0726563 0.0201562 0.0
0.0729687 0.0201562 0.0
0.0732813 0.0201562 0.0
0.0735938 0.0201562 0.0
0.0739063 0.0201562 0.0
0.0742188 0.0201562 0.0
0.0745313 0.0201562 0.0
0.0748438 0.0201562 0.0
0.0751563 0.0201562 0.0
0.0754688 0.0201562 0.0
0.0757812 0.0201562 0.0
0.0760938 0.0201562 0.0
0.0764063 0.0201562 0.0
0.0767187 0.0201562 0.0
0.0770313 0.0201562 0.0
0.0773438 0.0201562 0.0
0.0776562 0.0201562 0.0
0.0779688 0.0201562 0.0
0.0782813 0.0201562 0.0
0.0785938 0.0201562 0.0
0.0789063 0.0201562 0.0
0.0792188 0.0201562 0.0
0.0795312 0.0201562 0.0
0.0798438 0.0201562 0.0
0.0201562 0.0204687 0.0
0.0204687 0.0204687 0.0
0.0207812 0.0204687 0.0
0.0210937 0.0204687 0.0
0.0214062 0.0204687 0.0
0.0217187 0.0204687 0.0
0.0220312 0.0204687 0.0
0.0223437 0.0204687 0.0
0.0226562 0.0204687 0.0
0.0229687 0.0204687 0.0
0.0232812 0.0204687 0.0
0.0235937 0.0204687 0.0
0.0239062 0.0204687 0.0
0.0242187 0.0204687 0.0
0.0245312 0.0204687 0.0
0.0248437 0.0204687 0.0
0.0251562 0.0204687 0.0
0.0254687 0.0204687 0.0
0.0257812 0.0204687 0.0
0.0260937 0.0204687 0.0
0.0264062 0.0204687 0.0
0.0267187 0.0204687 0.0
0.0270312 0.0204687 0.0
0.0273438 0.0204687 0.0
0.0276562 0.0204687 0.0
0.0279687 0.0204687 0.0
0.0282813 0.0204687 0.0
0.0285937 0.0204687 0.0
0.0289062 0.0204687 0.0
0.0292187 0.0204687 0.0
0.0295312 0.0204687 0.0
0.0298437 0.0204687 0.0
0.0301563 0.0204687 0.0
0.0304687 0.0204687 0.0
0.0307812 0.0204687 0.0
0.0310937 0.0204687 0.0
0.0314062 0.0204687 0.0
0.0317188 0.0204687 0.0
0.0320312 0.0204687 0.0
0.0323437 0.0204687 0.0
0.0326562 0.0204687 0.0
0.0329688 0.0204687 0.0
0.0332812 0.0204687 0.0
0.0335937 0.0204687 0.0
0.0339062 0.0204687 0.0
0.0342187 0.0204687 0.0
0.0345312 0.0204687 0.0
0.0348437 0.0204687 0.0
0.0351562 0.0204687 0.0
0.0354688 0.0204687 0.0
0.0357813 0.0204687 0.0
0.0360938 0.0204687 0.0
0.0364063 0.0204687 0.0
0.0367188 0.0204687 0.0
0.0370313 0.0204687 0.0
0.0373438 0.0204687 0.0
0.0376563 0.0204687 0.0
0.0379687 0.0204687 0.0
0.0382812 0.0204687 0.0
0.0385938 0.0204687 0.0
0.0389062 0.0204687 0.0
0.0392187 0.0204687 0.0
0.0395313 0.0204687 0.0
0.0398437 0.0204687 0.0
0.0401563 0.0204687 0.0
0.0404687 0.0204687 0.0
0.0407812 0.0204687 0.0
0.0410937 0.0204687 0.0
0.0414062 0.0204687 0.0
0.0417187 0.0204687 0.0
0.0420312 0.0204687 0.0
0.0423437 0.0204687 0.0
0.0426562 0.0204687 0.0
0.0429688 0.0204687 0.0
0.0432813 0.0204687 0.0
0.0435938 0.0204687 0.0
0.0439063 0.0204687 0.0
0.0442188 0.0204687 0.0
0.0445313 0.0204687 0.0
0.0448438 0.0204687 0.0
0.0451562 0.0204687 0.0
0.0454688 0.0204687 0.0
0.0457813 0.0204687 0.0
0.0460938 0.0204687 0.0
0.0464062 0.0204687 0.0
0.0467188 0.0204687 0.0
0.0470312 0.0204687 0.0
0.0473438 0.0204687 0.0
0.0476563 0.0204687 0.0
0.0479687 0.0204687 0.0
0.0482813 0.0204687 0.0
0.0485938 0.0204687 0.0
0.0489062 0.0204687 0.0
0.0492188 0.0204687 0.0
0.0495313 0.0204687 0.0
0.0498437 0.0204687 0.0
0.0501562 0.0204687 0.0
0.0504688 0.0204687 0.0
0.0507812 0.0204687 0.0
0.0510938 0.0204687 0.0
0.0514063 0.0204687 0.0
0.0517187 0.0204687 0.0
0.0520313 0.0204687 0.0
0.0523438 0.0204687 0.0
0.0526563 0.0204687 0.0
0.0529687 0.0204687 0.0
0.0532813 0.0204687 0.0
0.0535938 0.0204687 0.0
0.0539063 0.0204687 0.0
0.0542187 0.0204687 0.0
0.0545313 0.0204687 0.0
0.0548438 0.0204687 0.0
0.0551563 0.0204687 0.0
0.0554688 0.0204687 0.0
0.0557812 0.0204687 0.0
0.0560937 0.0204687 0.0
0.0564062 0.0204687 0.0
0.0567188 0.0204687 0.0
0.0570313 0.0204687 0.0
0.0573438 0.0204687 0.0
0.0576562 0.0204687 0.0
0.0579687 0.0204687 0.0
0.0582813 0.0204687 0.0
0.0585938 0.0204687 0.0
0.0589063 0.0204687 0.0
0.0592188 0.0204687 0.0
0.0595313 0.0204687 0.0
0.0598438 0.0204687 0.0
0.0601563 0.0204687 0.0
0.0604688 0.0204687 0.0
0.0607813 0.0204687 0.0
0.0610938 0.0204687 0.0
0.0614062 0.0204687 0.0
0.0617188 0.0204687 0.0
0.0620313 0.0204687 0.0
0.0623438 0.0204687 0.0
0.0626562 0.0204687 0.0
0.0629688 0.0204687 0.0
0.0632813 0.0204687 0.0
0.0635938 0.0204687 0.0
0.0639062 0.0204687 0.0
0.0642187 0.0204687 0.0
0.0645313 0.0204687 0.0
0.0648438 0.0204687 0.0
0.0651562 0.0204687 0.0
0.0654688 0.0204687 0.0
0.0657812 0.0204687 0.0
0.0660937 0.0204687 0.0
0.0664062 0.0204687 0.0
0.0667188 0.0204687 0.0
0.0670313 0.0204687 0.0
0.0673438 0.0204687 0.0
0.0676563 0.0204687 0.0
0.0679688 0.0204687 0.0
0.0682813 0.0204687 0.0
0.0685938 0.0204687 0.0
0.0689063 0.0204687 0.0
0.0692187 0.0204687 0.0
0.0695313 0.0204687 0.0
0.0698438 0.0204687 0.0
0.0701563 0.0204687 0.0
0.0704687 0.0204687 0.0
0.0707813 0.0204687 0.0
0.0710938 0.0204687 0.0
0.0714063 0.0204687 0.0
0.0717187 0.0204687 0.0
0.0720313 0.0204687 0.0
0.0723437 0.0204687 0.0
0.0726563 0.0204687 0.0
0.0729687 0.0204687 0.0
0.0732813 0.0204687 0.0
0.0735938 0.0204687 0.0
0.0739063 0.0204687 0.0
0.0742188 0.0204687 0.0
0.0745313 0.0204687 0.0
0.0748438 0.0204687 0.0
0.0751563 0.0204687 0.0
0.0754688 0.0204687 0.0
0.0757812 0.0204687 0.0
0.0760938 0.0204687 0.0
0.0764063 0.0204687 0.0
0.0767187 0.0204687 0.0
0.0770313 0.0204687 0.0
0.0773438 0.0204687 0.0
0.0776562 0.0204687 0.0
0.0779688 0.0204687 0.0
0.0782813 0.0204687 0.0
0.0785938 0.0204687 0.0
0.0789063 0.0204687 0.0
0.0792188 0.0204687 0.0
0.0795312 0.0204687 0.0
0.0798438 0.0204687 0.0
0.0201562 0.0207812 0.0
0.0204687 0.0207812 0.0
0.0207812 0.0207812 0.0
0.0210937 0.0207812 0.0
0.0214062 0.0207812 0.0
0.0217187 0.0207812 0.0
0.0220312 0.0207812 0.0
0.0223437 0.0207812 0.0
0.0226562 0.0207812 0.0
0.0229687 0.0207812 0.0
0.0232812 0.0207812 0.0
0.0235937 0.0207812 0.0
0.0239062 0.0207812 0.0
0.0242187 0.0207812 0.0
0.0245312 0.0207812 0.0
0.0248437 0.0207812 0.0
0.0251562 0.0207812 0.0
0.0254687 0.0207812 0.0
0.0257812 0.0207812 0.0
0.0260937 0.0207812 0.0
0.0264062 0.0207812 0.0
0.0267187 0.0207812 0.0
0.0270312 0.0207812 0.0
0.0273438 0.0207812 0.0
0.0276562 0.0207812 0.0
0.0279687 0.0207812 0.0
0.0282813 0.0207812 0.0
0.0285937 0.0207812 0.0
[...]
POINT_DATA 36864
SCALARS Intensity float 1
LOOKUP_TABLE default
0.156235
0.286034
0.210585
0.207823
0.238081
0.16155
0.307203
0.335493
0.276425
0.180879
0.234255
0.361868
0.245181
0.211118
0.408879
0.115839
0.178102
0.245307
0.216295
0.102917
-0.0833224
0.202335
0.190123
0.184466
0.3689
0.338046
0.286395
0.0728254
0.318003
0.331794
0.126251
0.193302
0.263196
0.259887
0.0807481
0.0343196
0.262585
0.389075
0.237751
0.233956
0.180705
0.196862
0.156604
0.191385
0.0699203
0.309468
0.288958
0.312421
0.169724
0.238814
0.328344
0.190267
0.397711
0.399526
0.244148
0.0911595
0.237209
0.224572
0.372102
0.327768
0.244315
0.184001
0.212815
0.333691
0.195535
0.0999778
0.376734
0.254628
0.341142
0.158432
0.4241
0.171101
0.389262
0.0254451
0.256874
0.108072
0.239025
0.134229
0.27391
0.250819
0.300606
0.237478
0.38926
0.342116
0.0988249
0.160518
0.274191
0.201625
0.210823
0.0754235
0.289027
0.263077
0.285365
0.145282
0.147957
0.153209
0.385194
0.585975
0.252227
0.0584319
0.317846
0.0487656
0.294188
0.366617
0.112474
0.237555
0.21496
0.172964
0.373004
0.380629
0.231602
0.29119
0.310292
0.25647
0.394232
0.263189
0.182006
0.35494
0.241763
0.197317
0.296014
0.0841601
0.297406
0.245933
0.325826
0.264449
0.338776
0.10046
0.210834
0.343559
0.223262
0.197984
0.0616407
-0.052416
0.388312
0.181878
0.307146
0.318675
0.270014
0.147656
0.135943
0.146303
0.202742
0.2619
0.27271
0.157956
0.283363
0.237922
0.339639
0.113141
0.264715
0.201369
0.239549
0.190651
0.138601
0.300442
0.12916
0.199177
0.29358
0.216737
0.364431
0.208093
0.3721
0.340695
0.190128
0.306154
0.215664
0.325495
0.19833
0.29345
0.177055
0.410518
0.174062
0.234006
0.370053
0.209438
0.191809
0.250399
0.295048
0.216604
0.299784
0.300953
0.43453
0.160299
0.335654
0.324981
0.120005
0.314491
0.232996
0.12232
0.466553
0.290517
0.293603
0.107505
0.0269437
0.259752
0.271764
0.144743
0.33636
0.146975
0.100528
0.358285
0.319928
0.0859805
0.260432
0.214311
0.260508
0.3094
0.117025
0.385537
0.40211
0.231512
0.294256
0.225579
0.393614
0.18414
0.242433
0.182338
0.15718
0.259838
0.0570939
0.178409
0.308783
0.341511
0.29791
0.300662
0.16147
0.1945
0.387918
0.206667
0.214968
0.270206
0.360973
0.244775
0.195976
0.438034
0.390137
0.144959
0.466049
0.0681744
0.195845
0.212917
0.26905
0.250902
0.186287
0.204197
0.39475
0.216161
0.121002
0.0760617
0.247557
0.309486
0.279413
0.398405
0.326419
0.303172
0.300565
0.221959
0.198882
0.286126
0.223169
0.254034
0.194649
0.370994
0.189256
0.299398
0.217178
0.201583
0.323801
0.178583
0.358728
0.183181
0.250267
0.212086
0.348656
0.250452
0.16527
0.425732
0.172018
0.0685179
0.136045
0.245013
0.394055
0.128734
0.153859
0.22187
0.187248
0.134723
0.230636
0.347598
0.13064
0.245425
0.290757
0.215235
0.236086
0.294796
0.258342
0.301266
0.297696
0.233204
0.28352
0.463347
0.22949
0.191014
0.186785
0.119399
0.333085
0.114484
0.155597
0.384608
0.121396
0.25653
0.393356
0.0970333
0.219132
0.145672
0.24607
0.193141
0.385065
0.389303
0.314512
0.0670816
0.399702
0.294479
0.352034
0.246093
0.306195
0.368796
0.283805
0.193149
0.0431388
0.351405
0.182614
0.257315
0.400863
0.175913
0.185881
0.26565
0.257437
0.39658
0.268186
0.409559
0.134107
0.182164
0.193071
0.211104
0.0619966
0.0969542
0.261422
0.476313
0.26645
0.00903026
0.220738
0.177842
0.169082
0.340675
0.0928318
0.326502
0.289302
0.163375
0.263051
0.285351
0.237286
0.302626
0.244123
0.212215
0.486377
0.126049
0.267941
0.226402
0.303463
0.186354
0.261144
0.116968
0.274054
0.082424
0.309134
0.175641
0.221686
0.263441
0.277642
0.304687
0.281376
0.133076
0.33617
0.302702
0.162275
0.265447
0.187156
0.239056
0.0739073
0.299966
0.320264
0.1813
0.375128
0.24084
0.221351
0.293698
0.495343
0.231397
0.255052
0.113728
0.316157
0.413194
0.39392
0.237461
0.232001
0.343396
0.255728
0.257423
0.166116
0.205124
0.152352
0.315581
0.464739
0.196028
0.366939
0.189189
0.0967008
0.0871816
0.300373
0.17154
0.404734
0.22383
0.335993
0.244211
0.157344
0.338295
0.229381
0.196066
0.267468
0.24105
0.322755
0.28666
0.269798
0.28369
0.389657
0.336126
0.170292
0.331653
0.385783
0.265368
0.424797
0.171466
0.383526
0.413101
0.454682
0.114519
0.180656
0.112306
0.0978105
0.336216
0.187379
0.295775
0.390065
0.321812
0.0981628
0.256579
0.482412
0.141603
0.203993
0.111068
0.115545
0.233211
0.227104
0.379309
0.140712
0.280641
0.182805
0.261077
0.192992
0.315821
0.0467994
0.238974
0.268757
0.315918
0.155588
0.148292
0.301392
0.150673
0.314072
0.270815
0.0790483
0.22917
0.159198
0.176138
0.315254
-0.00837624
0.178159
0.220972
0.180376
0.250428
0.217603
0.19272
0.16805
0.265098
0.199256
0.260482
0.158747
0.52524
0.234959
0.304779
0.256762
0.26453
0.445748
0.350122
0.576012
0.227789
0.198894
0.278777
0.138639
0.251468
0.220636
0.0156126
0.289064
0.164623
0.0125571
0.282882
0.454113
0.400048
0.139554
0.134033
0.160066
0.168021
0.1878
0.362968
0.269238
0.103193
0.237642
0.314883
0.247599
0.286353
0.181532
0.356638
0.202678
0.355034
0.260109
0.312931
0.161789
0.274424
0.194248
0.206084
0.365542
0.339887
0.305413
0.155684
0.269942
0.191016
0.378727
0.199994
0.152706
0.214735
0.335717
0.441004
0.219762
0.233876
0.333805
0.473429
0.336157
0.466555
0.334654
0.285917
0.211784
0.216666
0.262713
0.17418
0.220712
0.127744
0.172989
0.286065
0.221625
-0.113924
0.224084
0.24803
0.320354
0.202303
0.272763
0.349126
0.392088
0.00114412
0.196174
0.246577
0.24242
0.0842395
0.343215
0.358734
0.0781431
0.231381
0.246938
0.0755243
0.244159
0.14087
-0.0694976
0.130718
0.236329
0.178652
0.0277228
0.279083
0.294898
0.253413
0.420973
0.184913
0.0882516
0.255253
0.351391
0.412071
0.268941
0.275117
0.326269
0.078094
0.103638
0.12059
0.363514
0.223742
0.318752
0.26594
0.173842
0.463946
0.365865
0.189078
0.205613
0.300458
0.379403
0.235785
0.315263
0.305913
0.228982
0.230803
0.225763
0.130388
0.401883
0.338536
0.152966
0.219571
0.311552
0.281556
0.237384
0.341776
0.276954
0.139241
0.227037
0.267614
0.264183
0.33914
0.229226
0.155703
0.0706398
0.139934
0.358487
0.233805
0.0452809
0.353273
0.292859
0.217314
0.152818
0.259061
0.374441
0.246664
0.311211
0.370252
0.105451
0.189282
0.323913
0.26892
0.315179
0.248921
0.160629
0.213986
0.285201
0.337715
0.216166
0.413597
0.209748
0.303684
0.381044
0.329291
0.232658
0.130691
0.423041
0.228497
0.281378
0.293101
0.377121
0.218739
0.296392
0.412349
0.242822
0.237433
0.224477
0.280269
0.304784
0.24405
0.157251
0.175293
0.147728
0.170914
0.383497
0.224309
0.080765
0.285479
0.011145
0.108372
0.262862
0.328161
-0.0434127
0.287094
0.368613
0.186444
0.330111
0.540626
0.160527
0.260761
0.157967
0.271518
0.279773
0.321144
0.226544
0.322279
0.50818
0.2765
0.347299
0.279076
0.101125
0.41797
0.345186
0.272433
0.215277
0.434901
0.236551
0.13603
0.320126
0.118019
0.171924
0.329874
0.25235
0.450908
0.212253
0.322191
0.317114
0.383044
0.351513
0.275403
0.205504
0.158172
0.323717
0.38094
0.251519
0.213813
0.287565
0.30192
0.123218
0.122639
0.154053
0.160837
0.231908
0.34105
0.210615
0.234072
0.37533
0.359356
0.280639
0.24319
0.0986236
0.445162
0.271503
0.0185444
0.241314
0.398505
0.242692
0.317157
0.157536
0.262214
0.173192
0.174757
0.148166
0.156019
0.234303
0.278643
0.286873
0.243104
0.120334
0.231995
0.0889593
0.207117
0.165954
0.216472
0.282471
0.047501
0.146944
0.218128
0.258743
0.258865
0.303591
0.346738
0.154364
0.279959
0.212087
0.35001
0.386799
0.262942
0.172475
0.219096
0.231421
0.220271
0.264481
0.351043
0.29818
0.438653
0.194929
0.234301
0.304128
0.254952
0.289433
0.326711
0.493389
0.354621
0.343711
0.252102
0.274978
0.207339
0.0946455
0.219909
0.36303
0.238768
0.277657
0.496677
0.279461
0.459456
0.246293
0.162403
0.248241
0.335118
0.0793199
0.323202
0.202041
0.222253
0.154935
0.241889
0.0714877
0.133095
0.353735
0.397396
0.237694
0.333201
0.402514
0.279407
0.184636
0.374875
0.286785
0.417377
0.450833
0.0783626
0.370774
0.0764069
0.083002
0.23616
0.242182
0.137454
0.228332
0.130149
0.244138
0.3131
0.197736
0.206521
0.18128
0.353244
0.281763
0.142285
0.198521
0.154513
0.278536
0.371126
0.162449
0.357983
0.152213
0.13709
0.0749198
0.040667
0.270791
0.410624
0.0545319
0.305908
0.264186
0.230347
0.0661879
0.290532
0.465986
0.319987
0.325494
0.269422
0.282699
0.308592
0.229426
0.163774
0.41823
0.18978
0.397629
-0.03285
0.147519
0.20975
0.259416
0.214229
0.223465
0.282465
0.276614
0.318778
0.323796
0.28454
0.291431
0.337314
0.376639
0.285629
0.231698
0.243253
0.175639
0.345067
0.15756
0.162839
0.187228
0.336232
0.282918
0.225877
0.230493
0.181169
0.21506
0.323826
0.068839
0.197474
0.175801
0.358098
0.199559
0.350318
0.245242
0.319978
0.36388
0.161647
0.378115
0.300245
0.320214
0.399046
0.360951
0.378404
0.213983
0.40988
0.234666
0.253749
0.254293
0.257245
0.397067
0.328064
0.294539
0.347919
0.156924
0.17987
0.2177
0.196068
0.107676
0.185558
0.268602
0.201091
0.370311
0.234421
0.154412
0.187043
0.26111
0.251847
0.300077
0.239975
0.253359
0.222966
0.39376
0.319687
0.204443
0.307418
0.147593
0.188254
0.161859
0.278759
0.361923
0.362184
0.206744
0.115015
0.25227
0.129956
0.280925
0.251577
0.0858888
-0.0215728
0.211786
0.116899
0.41843
0.325931
0.472163
0.176282
0.179886
0.378326
0.420145
0.333949
0.188463
0.330589
0.126525
0.152477
0.200235
0.254177
0.219074
0.191675
0.207625
0.325412
0.20839
0.259495
0.32827
0.351593
0.329735
0.267287
0.299378
0.397497
0.166302
0.253972
0.424348
0.23783
0.206542
0.235638
0.0863634
0.323583
0.321559
0.315449
0.189391
0.0909555
0.299396
0.262637
0.10988
0.15913
0.335687
0.208233
0.202521
0.277838
0.230004
0.263766
0.149925
0.0734489
0.330095
0.254001
0.108343
0.272078
0.217622
0.290749
0.59893
0.372092
0.298807
0.109647
0.1859
0.185002
0.268744
0.195951
0.261456
0.286336
0.223682
0.229545
0.372098
0.220941
0.2564
0.225212
0.192538
0.375117
0.237448
0.441932
0.203065
0.274802
0.369879
0.26687
0.300938
0.322142
0.038821
0.383144
0.304815
0.212373
0.245423
0.355365
0.566353
0.203809
0.118182
0.250736
0.385958
0.121237
0.224895
0.33213
0.110375
0.230488
0.275206
0.117115
0.37665
0.132095
0.177715
0.24839
0.00877265
0.380668
0.174089
0.038836
0.45439
0.229693
0.221457
0.267268
0.441828
0.210849
0.318335
0.147332
0.223036
0.177609
0.183514
0.321087
0.108787
0.243692
0.175431
0.289126
0.358922
0.184476
0.16151
0.237681
0.37139
0.131131
0.158792
0.116297
0.262347
0.149838
0.441127
0.21884
0.369085
0.187205
0.364269
0.0624929
-0.0417605
0.238142
0.254595
0.299847
0.326039
0.0705217
0.273159
0.125352
0.226425
0.179119
0.294524
0.199792
0.209959
0.247175
0.161298
0.241429
0.319484
0.283984
0.285355
0.138753
0.13098
0.253735
0.395428
0.0963998
0.295411
0.00913427
0.239559
0.21812
0.317788
0.172587
0.285246
0.181812
0.191007
0.303854
0.16237
0.297567
0.288373
-0.00156324
0.385732
0.192974
0.326958
0.307855
0.363872
0.199193
0.0909263
0.394049
0.442762
0.286943
0.124784
0.171547
0.159497
0.362458
0.265793
0.228223
0.195334
0.29307
0.171635
0.0299666
0.289817
0.377552
0.313012
0.269529
0.26481
0.064741
0.286132
0.137636
0.505192
0.406124
0.365287
0.222712
0.430822
0.108458
0.293599
0.274241
0.377929
0.230967
0.246231
0.0834487
0.284061
0.234489
0.494919
0.391542
0.334246
0.215039
0.410527
0.181807
0.0274173
0.310498
0.235649
0.228591
0.394067
0.025471
0.203886
0.234276
0.244663
0.404364
0.236981
0.213468
0.169146
0.163331
0.267503
0.163172
0.336368
0.294359
0.403374
0.173087
0.461096
0.38234
0.362446
0.253586
0.326312
0.270722
0.314111
0.300795
0.400576
0.200882
0.154372
0.147319
0.196936
0.16306
0.28008
0.467798
0.0394324
0.114874
0.353166
0.126964
0.222289
0.327327
0.220226
0.308283
0.461083
0.265887
0.165301
0.269699
0.524301
0.134776
0.335531
0.313041
0.373439
0.274382
0.327393
0.439008
0.408532
0.073964
0.191267
0.1715
0.476451
0.189788
0.218477
0.114766
0.326956
0.15005
0.27533
0.257054
0.355967
0.10718
0.128504
0.114479
0.32388
0.34492
0.348815
0.106228
0.52992
0.241196
0.311682
0.229686
0.23503
0.172702
0.22966
0.212288
0.189437
0.287623
0.305695
0.0428179
0.286926
0.319694
0.399072
0.191799
0.186722
0.324584
0.359719
0.411142
0.0238491
0.0193304
0.0516308
0.251494
0.252324
0.272152
0.297535
0.328951
0.318216
0.46238
0.278828
0.296179
0.155024
0.241062
0.139613
0.0999145
0.149371
0.466346
0.397031
0.147263
0.0555867
0.262438
0.19105
0.59481
0.214264
0.411892
0.282463
0.251567
0.237408
0.329968
0.0529887
0.24522
0.183797
0.323104
0.248296
0.259845
0.155079
0.352953
0.239378
0.201063
0.213199
0.316271
0.167911
0.410846
0.212011
0.108042
0.282858
0.109485
0.166742
0.235073
0.121841
0.222235
0.432021
0.175274
0.164841
0.290434
0.233064
0.30208
0.293802
0.411433
0.226921
0.371624
0.260673
0.277716
0.267517
0.211136
0.39764
0.401134
0.384609
0.249537
0.163472
0.211739
0.231464
0.392213
0.204648
0.333072
0.335683
0.099294
0.138032
0.148511
0.217944
0.136181
0.619899
0.295733
0.300023
0.127811
0.40059
0.134553
0.28861
0.212327
0.323132
0.198726
0.184977
0.387121
0.249923
0.305287
0.395488
0.131998
0.213738
0.259182
0.36018
0.29936
0.341056
0.394463
0.173871
0.254716
0.244067
0.41601
0.400063
0.211168
0.205309
0.12795
0.216426
0.221978
0.10517
0.198379
0.191789
0.126575
0.227791
0.268829
0.386629
0.2948
0.27864
0.351561
0.212566
0.444866
0.311609
0.327573
0.0269217
0.267865
0.322143
0.272062
0.413308
0.439155
0.230773
0.234173
0.157194
0.130628
-0.00253308
0.3671
0.166394
0.271683
0.106205
0.312694
0.300224
0.240614
0.217108
0.163404
0.235858
0.308576
0.124195
0.368976
0.300593
0.229773
0.152643
0.0374612
0.267184
0.167229
0.266012
0.245227
0.222947
0.345023
0.299259
0.250198
0.271471
0.268353
0.386125
0.0377737
0.463558
0.284506
0.265278
0.171886
0.345157
0.131907
0.293152
0.254205
0.19171
0.271711
0.28123
0.21773
0.210671
0.0952817
0.394612
0.357877
0.151775
0.14812
0.199751
0.159589
0.266565
0.268477
0.254778
0.111365
0.367151
0.30785
0.0220576
0.295699
0.265717
0.366575
0.203588
0.1407
0.210054
0.254716
0.314732
0.180613
0.414635
0.161975
0.116837
0.283693
0.307153
0.251312
0.214597
0.195467
0.191141
0.193608
0.250968
0.253191
0.335663
0.102438
0.203088
0.274563
0.184225
0.317287
0.157854
0.215094
0.15719
0.278612
0.162624
0.372446
0.341348
0.103037
0.297676
0.206074
0.169608
0.199409
0.298842
0.171937
0.295718
0.226
0.344136
0.433718
0.211896
0.396795
0.0885948
0.263333
0.390161
0.24573
0.288337
0.266955
0.169133
0.309349
0.0413173
0.170355
0.260046
0.280543
0.18704
0.276959
0.306171
0.32808
0.209652
0.371507
0.344727
0.318376
0.257568
0.0697404
-0.0193594
0.246066
0.170898
0.235984
0.279756
0.33145
0.307231
0.208252
0.387449
0.245389
0.385245
0.225736
0.22969
0.447831
0.37211
0.246568
0.259914
0.221292
0.18532
0.363898
0.125544
0.302516
0.233037
0.203804
0.224329
0.319106
0.312254
0.223027
0.342124
0.231482
0.371391
0.232585
0.159544
0.211531
0.295527
0.168672
0.255271
0.261405
0.264681
0.157282
0.207646
0.286801
0.374233
0.14368
0.338535
0.147441
0.366964
0.211687
0.289263
0.204259
0.386519
0.183428
0.293259
0.294656
0.307652
0.274801
0.0736421
0.269515
0.367956
0.152203
0.148036
0.316232
0.209237
0.351629
0.254019
0.296863
0.237085
0.239315
0.501231
0.240849
0.284287
0.361079
0.140228
0.318488
0.137132
0.182087
0.11599
0.144108
0.285895
0.151879
0.378548
0.26388
0.288415
0.327723
0.322815
0.249171
0.231335
0.196644
0.326809
0.255909
0.373099
0.105067
0.564626
0.199414
0.409453
0.323875
0.325783
0.294051
0.165027
0.260699
0.466207
0.243315
0.113856
0.224485
0.177783
0.299843
0.305027
0.203801
0.364575
0.361344
0.32596
0.170548
0.185878
0.230045
0.339402
0.16041
0.19498
0.162071
0.101651
0.31837
0.160302
0.113274
0.281587
0.172863
0.125207
0.233079
0.28979
0.202046
0.201183
0.28696
0.110718
0.281189
0.446964
0.231876
0.252354
0.315372
0.233036
0.183427
0.264698
0.372527
0.290281
0.299185
0.180823
-0.0240299
0.0558435
0.256435
0.0939302
0.218417
0.174953
0.242961
0.176507
0.27737
0.347253
0.188119
0.000943762
0.344651
0.174437
0.256913
0.212246
0.114141
0.383685
0.486524
0.303139
0.230646
0.275564
0.266357
0.236445
0.247242
0.23307
0.194847
0.0608972
0.148256
0.277579
0.138458
0.172629
0.0429384
0.2284
-0.0116927
0.293095
0.371507
0.322991
0.0447819
0.279294
0.260476
0.300695
0.190904
0.495533
0.194827
0.329318
0.292161
0.344176
0.325525
0.330737
0.216489
0.296411
0.304071
0.329184
0.241522
0.0885711
0.216737
0.23708
0.155691
0.416399
0.148289
0.0056035
0.205679
0.336499
0.199323
0.19704
0.145854
0.181082
0.220579
0.273129
0.157195
0.213606
0.137624
0.301623
0.192241
0.137768
0.206558
0.306406
0.212322
0.278953
0.211481
0.352413
0.353356
0.243421
0.329472
0.0604579
0.283198
0.208155
0.205244
0.235294
0.155761
0.0637896
0.0591572
0.26836
0.133642
0.221533
0.289039
0.256948
0.130477
0.225089
0.304884
0.0871225
0.285882
0.25277
0.273458
0.224774
0.369992
0.365247
0.0656066
0.34424
0.18563
0.119211
0.238296
0.36535
0.228756
0.184845
0.341323
0.187707
0.25368
0.0801399
0.280174
0.410306
0.103488
0.13906
0.330349
0.309283
0.327537
0.0793046
0.275197
0.438514
0.360645
0.293209
0.170315
0.15854
0.0754083
0.31175
0.2839
0.0479299
0.474161
0.247222
0.13034
0.208964
0.196614
0.183448
0.255258
0.131317
0.328579
0.0644734
0.296124
0.378425
0.121856
0.378237
0.0553232
0.265363
0.307271
0.256919
0.101508
0.347939
0.341737
0.256189
0.196456
0.299563
0.300568
0.192075
0.36191
0.0661787
0.280328
0.191467
0.115241
0.363586
0.332732
0.254451
0.0706562
0.0814691
0.150238
0.24011
0.136399
0.530667
0.35261
0.362495
0.248508
0.120645
0.306317
0.313234
0.153439
0.116781
0.308563
0.183869
0.12178
0.153806
0.156233
0.131923
0.222543
0.167143
0.212539
0.252322
0.274603
0.320259
0.235997
0.330234
0.241153
0.215597
0.117133
0.225607
0.28153
0.0955412
0.169957
0.237898
0.291121
0.183929
0.319068
0.288815
0.16978
0.217649
0.27146
0.135284
0.229375
0.0140099
0.36091
0.301937
0.25645
0.223415
0.225946
0.129301
0.344306
0.272422
0.395803
0.215861
0.328089
0.290457
0.273466
0.197701
0.0232326
0.22226
0.287423
0.211035
0.292701
0.233585
0.312949
0.217228
0.332113
0.0885177
0.270742
0.416749
0.328843
0.167579
0.0832987
0.219822
0.210961
0.264519
0.116571
0.396597
0.470261
0.302007
0.125294
0.414964
0.407489
0.22375
0.379638
0.266443
0.153314
0.25324
0.442267
0.215503
0.201269
0.136701
0.391288
0.0745283
0.0691299
0.251203
0.0988551
0.331382
0.394174
0.229202
0.227546
0.303379
0.285258
0.211223
0.259659
0.2275
0.279169
0.26112
0.267722
0.242518
0.204259
0.197111
0.132646
0.155956
0.262058
0.221647
0.136452
0.285401
0.355389
0.0793845
0.377479
0.207757
0.119211
0.12834
0.182777
0.28465
0.249484
0.331551
0.327277
0.402742
0.291904
0.260779
0.086631
0.28209
0.183371
0.017218
0.415134
0.108994
0.38713
0.167727
0.354449
0.12358
0.188361
0.25034
0.37949
0.351851
0.241851
0.287453
0.165662
0.277279
0.231313
0.238403
0.191166
0.164873
0.273314
0.186615
0.222867
0.404727
0.259834
0.182571
0.21307
0.391245
0.147649
0.270676
0.0898703
0.298588
0.325195
0.232219
0.228608
0.186742
0.217705
0.200667
0.329886
0.327117
0.271988
0.381711
0.213171
0.306176
0.350032
0.368722
0.271069
0.292762
0.229117
0.160869
0.110167
0.165651
0.30685
0.273066
0.372523
0.264997
0.32638
0.303096
0.0989008
0.437677
0.244848
0.205125
0.277501
0.366952
0.088341
0.106397
0.232345
0.0821264
0.295319
0.296706
0.431181
0.334995
0.476093
0.490613
0.122521
0.242117
0.0252129
0.216304
0.119767
0.470294
0.292641
0.193179
0.340468
0.373216
0.191066
0.295724
0.264648
0.357599
0.224613
0.318016
0.254873
0.352732
0.354639
0.139065
0.234289
0.37432
0.394248
0.255215
0.327309
0.259996
0.289746
0.167438
0.264258
0.289325
0.302207
0.306877
0.201813
0.234221
0.27025
0.216495
0.249837
0.343744
0.285985
0.177155
0.152239
0.249983
0.24608
0.201399
0.360314
0.165873
0.194329
0.298737
0.314107
0.400797
0.154296
0.357742
0.304908
0.21748
0.178191
0.173729
0.235208
0.161655
0.367889
0.147382
0.0972642
0.345719
0.355097
0.304018
0.236984
0.284504
0.203972
0.297873
0.381734
0.342174
0.492045
0.230217
0.13053
0.242117
0.152991
0.198387
0.372391
0.0358185
0.224383
0.520883
0.177806
0.29021
0.198367
0.288119
0.428335
0.197543
0.238197
0.297497
0.119273
0.250411
0.0319591
0.358999
0.136367
0.240402
0.206635
0.235847
0.155854
0.158321
0.213556
0.257564
0.22546
0.323828
0.478136
0.22296
0.0885251
0.450916
0.300399
0.194699
0.225086
0.220054
0.220238
0.283657
0.121445
0.210394
0.384373
0.227404
0.302908
0.197783
0.296615
0.221879
0.177713
0.183126
0.26489