# vtk DataFile Version 2.0
Vtkoutput example
ASCII

DATASET UNSTRUCTURED_GRID
POINTS 36864 float
0.0201562 0.0201562 0.0
0.0204687 0.0201562 0.0
0.0207812 0.0201562 0.0
0.0210937 0.0201562 0.0
0.0214062 0.0201562 0.0
0.0217187 0.0201562 0.0
0.0220312 0.0201562 0.0
0.0223437 0.0201562 0.0
0.0226562 0.0201562 0.0
0.0229687 0.0201562 0.0
0.0232812 0.0201562 0.0
0.0235937 0.0201562 0.0
0.0239062 0.0201562 0.0
0.0242187 0.0201562 0.0
0.0245312 0.0201562 0.0
0.0248437 0.0201562 0.0
0.0251562 0.0201562 0.0
0.0254687 0.0201562 0.0
0.0257812 0.0201562 0.0
0.0260937 0.0201562 0.0
0.0264062 0.0201562 0.0
0.0267187 0.0201562 0.0
0.0270312 0.0201562 0.0
0.0273438 0.0201562 0.0
0.0276562 0.0201562 0.0
0.0279687 0.0201562 0.0
0.0282813 0.0201562 0.0
0.0285937 0.0201562 0.0
0.0289062 0.0201562 0.0
0.0292187 0.0201562 0.0
0.0295312 0.0201562 0.0
0.0298437 0.0201562 0.0
0.0301563 0.0201562 0.0
0.0304687 0.0201562 0.0
0.0307812 0.0201562 0.0
0.0310937 0.0201562 0.0
0.0314062 0.0201562 0.0
0.0317188 0.0201562 0.0
0.0320312 0.0201562 0.0
0.0323437 0.0201562 0.0
0.0326562 0.0201562 0.0
0.0329688 0.0201562 0.0
0.0332812 0.0201562 0.0
0.0335937 0.0201562 0.0
0.0339062 0.0201562 0.0
0.0342187 0.0201562 0.0
0.0345312 0.0201562 0.0
0.0348437 0.0201562 0.0
0.0351562 0.0201562 0.0
0.0354688 0.0201562 0.0
0.0357813 0.0201562 0.0
0.0360938 0.0201562 0.0
0.0364063 0.0201562 0.0
0.0367188 0.0201562 0.0
0.0370313 0.0201562 0.0
0.0373438 0.0201562 0.0
0.0376563 0.0201562 0.0
0.0379687 0.0201562 0.0
0.0382812 0.0201562 0.0
0.0385938 0.0201562 0.0
0.0389062 0.0201562 0.0
0.0392187 0.0201562 0.0
0.0395313 0.0201562 0.0
0.0398437 0.0201562 0.0
0.0401563 0.0201562 0.0
0.0404687 0.0201562 0.0
0.0407812 0.0201562 0.0
0.0410937 0.0201562 0.0
0.0414062 0.0201562 0.0
0.0417187 0.0201562 0.0
0.0420312 0.0201562 0.0
0.0423437 0.0201562 0.0
0.0426562 0.0201562 0.0
0.0429688 0.0201562 0.0
0.0432813 0.0201562 0.0
0.0435938 0.0201562 0.0
0.0439063 0.0201562 0.0
0.0442188 0.0201562 0.0
0.0445313 0.0201562 0.0
0.0448438 0.0201562 0.0
0.0451562 0.0201562 0.0
0.0454688 0.0201562 0.0
0.0457813 0.0201562 0.0
0.0460938 0.0201562 0.0
0.0464062 0.0201562 0.0
0.0467188 0.0201562 0.0
0.0470312 0.0201562 0.0
0.0473438 0.0201562 0.0
0.0476563 0.0201562 0.0
0.0479687 0.0201562 0.0
0.0482813 0.0201562 0.0
0.0485938 0.0201562 0.0
0.0489062 0.0201562 0.0
0.0492188 0.0201562 0.0
0.0495313 0.0201562 0.0
0.0498437 0.0201562 0.0
0.0501562 0.0201562 0.0
0.0504688 0.0201562 0.0
0.0507812 0.0201562 0.0
0.0510938 0.0201562 0.0
0.0514063 0.0201562 0.0
0.0517187 0.0201562 0.0
0.0520313 0.0201562 0.0
0.0523438 0.0201562 0.0
0.0526563 0.0201562 0.0
0.0529687 0.0201562 0.0
0.0532813 0.0201562 0.0
0.0535938 0.0201562 0.0
0.0539063 0.0201562 0.0
0.0542187 0.0201562 0.0
0.0545313 0.0201562 0.0
0.0548438 0.0201562 0.0
0.0551563 0.0201562 0.0
0.0554688 0.0201562 0.0
0.0557812 0.0201562 0.0
0.0560937 0.0201562 0.0
0.0564062 0.0201562 0.0
0.0567188 0.0201562 0.0
0.0570313 0.0201562 0.0
0.0573438 0.0201562 0.0
0.0576562 0.0201562 0.0
0.0579687 0.0201562 0.0
0.0582813 0.0201562 0.0
0.0585938 0.0201562 0.0
0.0589063 0.0201562 0.0
0.0592188 0.0201562 0.0
0.0595313 0.0201562 0.0
0.0598438 0.0201562 0.0
0.0601563 0.0201562 0.0
0.0604688 0.0201562 0.0
0.0607813 0.0201562 0.0
0.0610938 0.0201562 0.0
0.0614062 0.0201562 0.0
0.0617188 0.0201562 0.0
0.0620313 0.0201562 0.0
0.0623438 0.0201562 0.0
0.0626562 0.0201562 0.0
0.0629688 0.0201562 0.0
0.0632813 0.0201562 0.0
0.0635938 0.0201562 0.0
0.0639062 0.0201562 0.0
0.0642187 0.0201562 0.0
0.0645313 0.0201562 0.0
0.0648438 0.0201562 0.0
0.0651562 0.0201562 0.0
0.0654688 0.0201562 0.0
0.0657812 0.0201562 0.0
0.0660937 0.0201562 0.0
0.0664062 0.0201562 0.0
0.0667188 0.0201562 0.0
0.0670313 0.0201562 0.0
0.0673438 0.0201562 0.0
0.0676563 0.0201562 0.0
0.0679688 0.0201562 0.0
0.0682813 0.0201562 0.0
0.0685938 0.0201562 0.0
0.0689063 0.0201562 0.0
0.0692187 0.0201562 0.0
0.0695313 0.0201562 0.0
0.0698438 0.0201562 0.0
0.0701563 0.0201562 0.0
0.0704687 0.0201562 0.0
0.0707813 0.0201562 0.0
0.0710938 0.0201562 0.0
0.0714063 0.0201562 0.0
0.0717187 0.0201562 0.0
0.0720313 0.0201562 0.0
0.0723437 0.0201562 0.0
0.0726563 0.0201562 0.0
0.0729687 0.0201562 0.0
0.0732813 0.0201562 0.0
0.0735938 0.0201562 0.0
0.0739063 0.0201562 0.0
0.0742188 0.0201562 0.0
0.0745313 0.0201562 0.0
0.0748438 0.0201562 0.0
0.0751563 0.0201562 0.0
0.0754688 0.0201562 0.0
0.0757812 0.0201562 0.0
0.0760938 0.0201562 0.0
0.0764063 0.0201562 0.0
0.0767187 0.0201562 0.0
0.0770313 0.0201562 0.0
0.0773438 0.0201562 0.0
0.0776562 0.0201562 0.0
0.0779688 0.0201562 0.0
0.0782813 0.0201562 0.0
0.0785938 0.0201562 0.0
0.0789063 0.0201562 0.0
0.0792188 0.0201562 0.0
0.0795312 0.0201562 0.0
0.0798438 0.0201562 0.0
0.0201562 0.0204687 0.0
0.0204687 0.0204687 0.0
0.0207812 0.0204687 0.0
0.0210937 0.0204687 0.0
0.0214062 0.0204687 0.0
0.0217187 0.0204687 0.0
0.0220312 0.0204687 0.0
0.0223437 0.0204687 0.0
0.0226562 0.0204687 0.0
0.0229687 0.0204687 0.0
0.0232812 0.0204687 0.0
0.0235937 0.0204687 0.0
0.0239062 0.0204687 0.0
0.0242187 0.0204687 0.0
0.0245312 0.0204687 0.0
0.0248437 0.0204687 0.0
0.0251562 0.0204687 0.0
0.0254687 0.0204687 0.0
0.0257812 0.0204687 0.0
0.0260937 0.0204687 0.0
0.0264062 0.0204687 0.0
0.0267187 0.0204687 0.0
0.0270312 0.0204687 0.0
0.0273438 0.0204687 0.0
0.0276562 0.0204687 0.0
0.0279687 0.0204687 0.0
0.0282813 0.0204687 0.0
0.0285937 0.0204687 0.0
0.0289062 0.0204687 0.0
0.0292187 0.0204687 0.0
0.0295312 0.0204687 0.0
0.0298437 0.0204687 0.0
0.0301563 0.0204687 0.0
0.0304687 0.0204687 0.0
0.0307812 0.0204687 0.0
0.0310937 0.0204687 0.0
0.0314062 0.0204687 0.0
0.0317188 0.0204687 0.0
0.0320312 0.0204687 0.0
0.0323437 0.0204687 0.0
0.0326562 0.0204687 0.0
0.0329688 0.0204687 0.0
0.0332812 0.0204687 0.0
0.0335937 0.0204687 0.0
0.0339062 0.0204687 0.0
0.0342187 0.0204687 0.0
0.0345312 0.0204687 0.0
0.0348437 0.0204687 0.0
0.0351562 0.0204687 0.0
0.0354688 0.0204687 0.0
0.0357813 0.0204687 0.0
0.0360938 0.0204687 0.0
0.0364063 0.0204687 0.0
0.0367188 0.0204687 0.0
0.0370313 0.0204687 0.0
0.0373438 0.0204687 0.0
0.0376563 0.0204687 0.0
0.0379687 0.0204687 0.0
0.0382812 0.0204687 0.0
0.0385938 0.0204687 0.0
0.0389062 0.0204687 0.0
0.0392187 0.0204687 0.0
0.0395313 0.0204687 0.0
0.0398437 0.0204687 0.0
0.0401563 0.0204687 0.0
0.0404687 0.0204687 0.0
0.0407812 0.0204687 0.0
0.0410937 0.0204687 0.0
0.0414062 0.0204687 0.0
0.0417187 0.0204687 0.0
0.0420312 0.0204687 0.0
0.0423437 0.0204687 0.0
0.0426562 0.0204687 0.0
0.0429688 0.0204687 0.0
0.0432813 0.0204687 0.0
0.0435938 0.0204687 0.0
0.0439063 0.0204687 0.0
0.0442188 0.0204687 0.0
0.0445313 0.0204687 0.0
0.0448438 0.0204687 0.0
0.0451562 0.0204687 0.0
0.0454688 0.0204687 0.0
0.0457813 0.0204687 0.0
0.0460938 0.0204687 0.0
0.0464062 0.0204687 0.0
0.0467188 0.0204687 0.0
0.0470312 0.0204687 0.0
0.0473438 0.0204687 0.0
0.0476563 0.0204687 0.0
0.0479687 0.0204687 0.0
0.0482813 0.0204687 0.0
0.0485938 0.0204687 0.0
0.0489062 0.0204687 0.0
0.0492188 0.0204687 0.0
0.0495313 0.0204687 0.0
0.0498437 0.0204687 0.0
0.0501562 0.0204687 0.0
0.0504688 0.0204687 0.0
0.0507812 0.0204687 0.0
0.0510938 0.0204687 0.0
0.0514063 0.0204687 0.0
0.0517187 0.0204687 0.0
0.0520313 0.0204687 0.0
0.0523438 0.0204687 0.0
0.0526563 0.0204687 0.0
0.0529687 0.0204687 0.0
0.0532813 0.0204687 0.0
0.0535938 0.0204687 0.0
0.0539063 0.0204687 0.0
0.0542187 0.0204687 0.0
0.0545313 0.0204687 0.0
0.0548438 0.0204687 0.0
0.0551563 0.0204687 0.0
0.0554688 0.0204687 0.0
0.0557812 0.0204687 0.0
0.0560937 0.0204687 0.0
0.0564062 0.0204687 0.0
0.0567188 0.0204687 0.0
0.0570313 0.0204687 0.0
0.0573438 0.0204687 0.0
0.0576562 0.0204687 0.0
0.0579687 0.0204687 0.0
0.0582813 0.0204687 0.0
0.0585938 0.0204687 0.0
0.0589063 0.0204687 0.0
0.0592188 0.0204687 0.0
0.0595313 0.0204687 0.0
0.0598438 0.0204687 0.0
0.0601563 0.0204687 0.0
0.0604688 0.0204687 0.0
0.0607813 0.0204687 0.0
0.0610938 0.0204687 0.0
0.0614062 0.0204687 0.0
0.0617188 0.0204687 0.0
0.0620313 0.0204687 0.0
0.0623438 0.0204687 0.0
0.0626562 0.0204687 0.0
0.0629688 0.0204687 0.0
0.0632813 0.0204687 0.0
0.0635938 0.0204687 0.0
0.0639062 0.0204687 0.0
0.0642187 0.0204687 0.0
0.0645313 0.0204687 0.0
0.0648438 0.0204687 0.0
0.0651562 0.0204687 0.0
0.0654688 0.0204687 0.0
0.0657812 0.0204687 0.0
0.0660937 0.0204687 0.0
0.0664062 0.0204687 0.0
0.0667188 0.0204687 0.0
0.0670313 0.0204687 0.0
0.0673438 0.0204687 0.0
0.0676563 0.0204687 0.0
0.0679688 0.0204687 0.0
0.0682813 0.0204687 0.0
0.0685938 0.0204687 0.0
0.0689063 0.0204687 0.0
0.0692187 0.0204687 0.0
0.0695313 0.0204687 0.0
0.0698438 0.0204687 0.0
0.0701563 0.0204687 0.0
0.0704687 0.0204687 0.0
0.0707813 0.0204687 0.0
0.0710938 0.0204687 0.0
0.0714063 0.0204687 0.0
0.0717187 0.0204687 0.0
0.0720313 0.0204687 0.0
0.0723437 0.0204687 0.0
0.0726563 0.0204687 0.0
0.0729687 0.0204687 0.0
0.0732813 0.0204687 0.0
0.0735938 0.0204687 0.0
0.0739063 0.0204687 0.0
0.0742188 0.0204687 0.0
0.0745313 0.0204687 0.0
0.0748438 0.0204687 0.0
0.0751563 0.0204687 0.0
0.0754688 0.0204687 0.0
0.0757812 0.0204687 0.0
0.0760938 0.0204687 0.0
0.0764063 0.0204687 0.0
0.0767187 0.0204687 0.0
0.0770313 0.0204687 0.0
0.0773438 0.0204687 0.0
0.0776562 0.0204687 0.0
0.0779688 0.0204687 0.0
0.0782813 0.0204687 0.0
0.0785938 0.0204687 0.0
0.0789063 0.0204687 0.0
0.0792188 0.0204687 0.0
0.0795312 0.0204687 0.0
0.0798438 0.0204687 0.0
0.0201562 0.0207812 0.0
0.0204687 0.0207812 0.0
0.0207812 0.0207812 0.0
0.0210937 0.0207812 0.0
0.0214062 0.0207812 0.0
0.0217187 0.0207812 0.0
0.0220312 0.0207812 0.0
0.0223437 0.0207812 0.0
0.0226562 0.0207812 0.0
0.0229687 0.0207812 0.0
0.0232812 0.0207812 0.0
0.0235937 0.0207812 0.0
0.0239062 0.0207812 0.0
0.0242187 0.0207812 0.0
0.0245312 0.0207812 0.0
0.0248437 0.0207812 0.0
0.0251562 0.0207812 0.0
0.0254687 0.0207812 0.0
0.0257812 0.0207812 0.0
0.0260937 0.0207812 0.0
0.0264062 0.0207812 0.0
0.0267187 0.0207812 0.0
0.0270312 0.0207812 0.0
0.0273438 0.0207812 0.0
0.0276562 0.0207812 0.0
0.0279687 0.0207812 0.0
0.0282813 0.0207812 0.0
0.0285937 0.0207812 0.0
[...]
POINT_DATA 36864
SCALARS Intensity float 1
LOOKUP_TABLE default
0.420608
0.361764
0.22498
0.193653
0.24045
0.192159
0.261151
0.245684
0.304237
0.264832
0.0883396
0.392821
0.316852
0.134148
0.465649
0.423525
0.272088
0.310186
0.268877
0.424503
0.329931
0.390887
0.25152
0.256759
0.262737
0.12993
0.20548
0.247978
0.377605
0.397406
0.119
0.0962607
0.289838
0.203014
0.260483
0.338135
0.302372
0.281017
0.240825
0.014413
0.232102
0.313226
0.298948
0.140485
0.197493
0.212252
0.330003
0.19861
0.163854
0.205036
0.242667
0.301869
0.320794
0.152837
0.060631
0.226161
0.154458
0.303301
0.0666364
0.181257
0.496683
0.211858
0.274983
0.382436
0.393023
0.314719
0.252465
0.408973
0.191296
0.422112
0.21054
0.272674
0.234677
0.321957
0.293347
0.277053
0.367678
0.0930735
0.296273
0.22948
0.333788
0.0809955
0.610129
0.277318
0.357249
0.179535
0.310045
0.255187
0.104816
0.306609
0.290767
0.25895
0.31979
0.435944
0.254328
0.339549
0.367344
0.19041
0.275712
0.246497
0.286759
0.25241
0.262537
0.219088
0.30932
0.249184
0.364093
0.348713
0.297432
0.229733
0.239644
0.177887
0.119667
0.116028
0.202007
0.22454
0.344263
0.066184
0.393018
0.217224
0.229393
0.20322
0.195053
0.40917
0.263798
0.128206
0.282316
0.075624
0.296133
0.135051
0.19438
0.279624
0.223965
0.0699973
0.306351
0.259713
0.23512
0.212732
0.0105675
0.373224
0.414733
0.309363
0.391007
0.308571
0.223644
0.317026
0.132834
0.196285
0.220677
0.312921
0.317407
0.123126
0.210067
0.175773
0.324375
0.400074
0.104238
0.100312
0.192461
0.33179
0.299586
0.241408
0.417063
0.231029
0.166743
0.262637
0.411454
0.274263
0.444009
0.29553
0.291293
0.0898997
0.296617
0.273566
0.391745
0.271588
0.137931
0.241858
0.225166
0.379236
0.194199
0.217414
0.388672
-0.0103143
0.324188
0.149463
0.355328
0.236632
0.0923213
0.173686
0.319767
0.302996
0.33564
0.191734
0.410106
0.128718
0.312734
0.25912
0.251581
0.229372
0.300901
0.313042
0.222592
0.237011
0.214571
0.303173
0.297908
0.236209
-0.0114045
0.281238
0.20754
0.442345
0.212098
0.222498
0.438309
0.394926
0.170846
0.0710353
0.3602
0.289255
0.209132
0.168025
0.304176
0.219552
0.11823
0.313104
0.325456
0.407602
0.33413
0.146627
0.321629
0.0460251
0.301331
0.299195
0.327655
0.315473
0.423952
0.368869
0.171836
0.316834
0.0129315
0.206622
0.177419
0.176124
0.208176
0.189286
0.208562
0.238111
0.311297
0.224516
0.386214
0.413854
0.351185
0.395427
0.0235224
0.32532
0.156088
0.18423
0.266216
0.0578122
0.179356
0.357951
0.162398
0.390985
0.176171
0.246748
0.191329
0.150756
0.335863
0.319852
0.267486
0.0964111
0.234424
0.337779
0.285198
0.351073
0.245368
0.349074
0.286206
0.109121
0.374828
0.23676
0.088024
0.167903
0.214453
0.309708
0.276639
0.271087
0.202624
0.354308
0.132693
0.373752
0.197369
0.274239
0.329378
0.531743
0.286754
0.286104
0.0480299
0.212108
0.21521
0.226618
0.158174
0.28459
0.354786
0.448921
0.333735
0.403047
0.293971
0.554156
-0.0302268
0.165737
0.273609
0.0943521
0.289844
0.215314
0.262198
0.35947
0.201938
0.348986
0.32629
0.308049
0.244431
0.386692
0.0279478
0.164745
0.0711953
0.200096
0.261721
0.244683
0.27557
0.134515
0.0579115
0.197622
0.36136
0.229362
0.179691
0.131416
0.331587
0.219026
0.293993
0.14978
0.242723
0.283825
0.252964
0.150906
0.369633
0.24602
0.372966
0.0786624
0.216275
0.364264
0.185944
0.269829
0.311668
0.225821
0.24531
0.32621
0.329682
0.198739
0.334283
0.364504
0.192359
0.238924
0.427161
0.269441
0.236084
0.253952
0.242903
0.198447
0.251418
0.262904
0.400691
0.188638
0.290585
0.247384
0.223996
0.320668
0.0729969
0.196392
0.331127
0.1694
0.268661
0.463294
0.153674
-0.00835722
0.123844
0.106366
0.237726
0.154212
0.136106
0.334063
0.346614
0.165725
0.233767
0.265827
0.231206
0.111928
0.433621
0.18362
0.170504
0.388634
0.245453
0.133956
0.164548
0.194678
0.307796
0.27575
0.335811
0.397331
0.14259
0.295459
0.160233
0.180114
0.237022
0.464706
0.231546
0.477489
0.311683
0.22167
0.202111
0.288412
0.207531
0.149774
0.110623
0.362033
0.296273
0.213574
0.193926
0.184169
0.310773
0.307095
0.147943
0.167436
0.102024
0.194839
0.246941
0.22231
0.324917
0.139008
0.248844
0.241242
0.412864
0.17133
0.248375
0.345702
0.213445
0.391894
0.23759
0.230936
-0.0424658
0.332935
0.260849
0.281432
0.0166853
0.0486453
0.379818
0.311186
0.212999
0.119195
0.415949
0.0836833
0.360604
0.210977
0.243622
0.32016
0.404901
0.0823876
0.0756847
0.155445
0.192241
0.347438
0.107189
0.254671
0.371127
0.461966
0.252992
0.224349
0.0758201
0.244532
0.107606
0.24292
0.348456
0.229523
0.262207
0.0325133
0.268926
0.380984
0.246059
0.211293
0.306809
0.233992
0.314787
0.105643
0.303582
0.153218
0.21667
0.225938
0.357015
0.300248
0.300245
0.222892
0.248834
0.169615
0.254218
0.160383
0.305867
0.287118
0.202419
0.330316
0.15386
0.163486
0.322243
0.191126
0.145189
0.2944
0.208949
0.267648
0.175527
0.180309
0.251642
0.220467
0.374962
0.196313
0.176209
0.248712
0.0990254
0.0423034
0.258873
0.391572
0.254665
0.246755
0.385107
0.356404
0.232719
0.469825
0.278422
0.237548
0.333803
0.020095
0.279795
0.388297
0.276237
0.443545
0.16185
0.191887
0.288939
0.31506
0.241235
0.142164
0.123204
0.281434
0.275393
0.174472
0.153573
0.144516
0.442074
0.216186
0.274215
0.227065
0.16858
0.359654
0.404665
0.16344
0.316671
0.349074
0.124877
0.293456
0.23451
0.241509
0.369306
0.405443
0.276847
0.105509
0.273705
0.117573
0.502255
0.26764
0.100233
0.246922
0.132733
0.274836
0.340614
0.325131
0.387869
0.212172
0.21956
0.38098
0.167472
0.27785
0.315892
0.287855
0.345701
0.0104199
0.113594
0.169801
0.315189
0.13999
0.12407
0.331546
0.283948
0.219159
0.11874
0.218359
0.235705
0.27358
0.248845
0.23401
0.352351
0.164774
0.238496
0.346572
0.347355
0.238108
0.298827
0.185823
0.389537
0.336223
0.176739
0.354084
0.241923
0.291892
0.26912
0.196112
0.0345179
0.308374
0.159136
0.224052
0.268589
0.150684
0.18772
0.311917
0.284871
0.148593
0.263951
0.323983
0.222025
0.26204
0.412986
0.499499
-0.0193367
0.269208
0.114139
0.278956
0.260044
0.0981313
0.0788246
0.146814
0.468839
0.23533
0.215785
0.238091
0.0966391
0.245017
0.209292
0.268929
0.285952
0.262528
0.24249
0.0389698
-0.0448902
0.164136
0.26731
0.216315
0.315421
0.32592
0.289313
0.176465
0.259514
0.203728
0.32665
0.206349
0.273088
0.254508
0.411703
0.28664
0.274444
0.233864
0.307296
0.438416
0.355977
0.115019
0.432884
0.178557
0.384486
0.212602
0.0278933
0.253591
0.212787
0.1453
0.16854
0.202891
0.34677
0.158508
0.440037
0.0875823
0.258659
0.0865852
0.348149
0.269196
0.341767
0.396302
0.242741
0.140941
0.331292
0.338594
0.307358
0.237669
0.111356
0.231545
0.394709
0.23488
0.242231
0.241227
0.115719
-0.00521361
0.394395
0.172359
0.087253
0.270594
0.135231
0.275787
0.26659
0.23484
0.211525
0.202331
0.210986
0.410108
0.132101
0.271092
0.269314
0.265084
0.255131
0.186447
0.232519
0.1026
0.199388
0.0818556
0.197682
0.108405
0.277349
0.289556
0.164285
0.206715
0.157485
0.303396
0.349099
0.357268
0.202891
0.278181
0.198344
0.253279
0.190067
0.382669
0.247565
0.253046
0.237832
0.292052
0.325358
0.158281
0.322898
0.152531
0.115653
0.141915
0.058302
0.159581
0.21287
0.177215
0.308095
0.100397
0.178908
0.278888
0.245434
0.402598
-0.027844
0.2533
0.405792
-0.037848
0.228219
0.229943
0.292181
0.307063
0.262234
0.225779
0.250595
0.269046
0.229134
0.162007
0.0971369
0.133253
0.268849
0.309849
0.141727
0.212927
0.262901
0.382025
0.163457
0.203693
0.237902
0.221051
0.139529
0.410552
0.488919
0.141528
0.280669
0.224763
0.163423
0.287586
0.252119
0.437238
0.243757
0.363261
0.425831
0.185966
0.24685
0.112688
0.225688
0.147864
0.264089
0.368782
0.140143
0.229406
0.388651
0.207063
0.233656
0.183423
0.218444
0.331086
0.25713
0.177586
0.245464
0.307558
0.134957
0.246772
0.327203
0.13603
0.139253
0.267268
0.110693
0.203031
0.244614
0.251956
0.286731
0.407328
0.421361
0.316869
0.358645
0.258063
0.112575
0.338556
0.106972
0.349172
0.127186
0.438462
0.128277
0.430608
0.36888
0.308367
0.402697
0.213513
0.132306
0.119689
0.31967
0.437683
0.302107
0.263108
0.141661
0.209939
0.149229
0.377435
0.320641
0.421701
0.183422
0.411729
0.288832
0.011787
0.365271
0.221752
0.286992
0.123014
0.505315
0.0491618
0.313646
0.321967
0.124411
0.27135
0.182791
0.0974843
0.349457
0.123499
0.161615
0.267654
0.30294
0.178664
0.18103
0.0929623
0.116375
0.371412
0.201244
0.426396
0.291229
0.347914
0.306448
0.315891
0.257635
0.33252
0.120032
0.3979
0.164223
0.225477
0.183932
0.313737
0.366126
0.361209
0.400949
0.20392
0.312963
0.317371
0.319222
0.157468
0.398474
0.147592
0.303238
0.0462167
0.246337
0.282383
0.278245
0.440497
0.412174
0.250936
0.259213
0.40644
0.327792
0.404202
0.332252
0.229109
0.245934
0.420881
0.114741
0.34795
0.137033
0.238645
0.0672996
0.347298
0.230923
0.226261
0.262478
0.219458
0.239034
0.401356
0.168523
0.176291
0.326268
0.21056
0.309439
0.323013
0.26729
0.146326
0.206181
0.231488
0.207903
0.368324
0.449767
0.184852
0.376579
0.290961
0.199361
0.236163
0.126374
0.269275
0.214288
0.236025
0.264783
0.402369
0.151217
0.201632
0.038266
0.345997
0.49192
0.0973747
0.16602
0.34089
0.14461
0.204798
0.340865
0.308562
0.156296
0.33169
0.16618
0.225923
-0.0862079
0.319639
0.187922
0.336415
0.304065
0.399892
0.273484
0.485346
0.320827
0.01672
0.437795
0.167784
0.168124
0.19348
0.211568
0.185021
0.284887
0.270256
0.15763
0.369517
0.248155
0.242139
0.267697
0.188651
0.27019
0.353708
0.14763
0.373087
0.394897
0.361413
0.343644
0.33896
0.305396
0.183472
0.42626
0.216989
0.142562
0.315512
0.247879
0.404207
0.304711
0.137195
0.434122
0.305175
0.323953
0.230245
0.222018
0.262303
0.37607
0.325704
0.197994
0.246122
0.186261
0.350914
0.349871
0.115793
0.31069
0.275342
0.272369
0.242824
0.182553
0.130403
0.19764
0.22845
0.262343
0.268575
0.248892
0.106645
0.30756
0.281226
0.267732
0.231184
0.14114
0.205741
0.172764
0.344189
0.205256
0.188835
0.133556
0.0786244
0.256502
0.291525
0.31071
0.193501
0.234769
0.172309
0.335354
0.276941
0.271999
0.314085
0.137818
0.22959
0.251828
0.287456
0.338854
0.205661
0.259151
0.324418
0.205696
0.255052
0.345538
0.146607
0.265389
0.13675
0.198481
0.280546
0.254016
0.0682738
0.407407
0.246068
0.278925
0.259307
0.0746368
0.228874
0.290269
0.214564
0.253668
0.277671
0.261034
0.0577048
0.321502
0.273061
0.316793
0.238613
0.121516
0.208461
0.469578
0.174004
0.154272
0.236208
0.224479
0.12875
0.20622
0.16639
0.324102
0.10528
0.196203
0.297925
0.269806
0.109644
0.483519
0.206696
0.419537
0.269496
0.161233
0.160296
0.0863232
0.333671
0.227482
0.145438
0.366299
0.343074
0.356316
0.405994
0.14764
0.151148
0.354228
0.245536
0.199127
0.197143
0.353301
0.225827
0.272391
0.310622
0.148546
0.217774
0.192058
0.24507
0.285827
0.272915
0.3415
0.175269
0.29589
0.220392
0.487135
0.0720005
0.28703
0.144528
0.289407
0.439607
0.204867
0.0914357
0.229604
0.188669
0.131566
0.289395
0.205163
0.0715204
0.243402
0.174564
0.288721
0.297892
0.217226
-0.0633905
0.435074
0.296406
0.347418
0.29558
0.140517
0.319412
0.272401
0.346599
0.18512
0.187871
0.14633
0.366627
0.228068
0.173979
0.297323
0.321911
0.0149354
0.212904
0.142335
0.19658
0.0961631
0.191006
0.156452
0.337293
0.265847
0.0491938
0.343833
0.302676
0.221727
0.237546
0.334084
0.414846
0.424613
0.0924746
0.0871434
0.224837
0.255168
0.264846
0.262925
0.170432
0.308701
0.246306
0.357588
0.232217
0.27858
0.190284
0.160772
0.228464
0.228188
0.217394
0.010659
0.140388
0.238214
0.194181
0.311438
0.162951
0.248649
0.228354
0.179312
0.165056
0.389012
0.236963
-0.015133
0.280393
0.364453
0.339723
0.30908
0.381264
0.262773
0.328998
0.294257
0.1789
0.192886
0.178682
0.131638
0.301159
0.215995
0.357832
0.226007
0.263719
0.318601
0.339916
0.27373
0.370496
0.192202
0.308378
0.302927
0.150906
0.131757
0.212451
0.373633
0.158625
0.299303
0.209547
0.22014
0.432693
0.176239
0.17348
0.145013
0.467109
0.44992
0.264587
0.17614
0.408751
0.270901
0.165466
-0.078573
0.126837
0.117811
0.293413
0.257205
0.294157
0.396519
0.110602
0.286211
0.27885
0.329129
0.166202
0.0975435
0.333409
0.10114
0.310521
0.349378
0.135265
0.207261
0.334411
0.200152
0.185493
0.234767
0.211439
0.173862
0.192061
0.307723
0.208776
0.195563
0.321172
0.247549
0.115045
0.305944
0.11009
0.16526
0.156096
0.229216
0.146229
0.115391
0.360672
0.390542
0.314709
0.29192
0.125058
0.339405
0.218026
0.309981
0.280202
0.401175
0.176203
0.201707
0.0931743
0.251216
0.256951
0.390891
0.26478
0.210368
0.107465
0.348612
0.196856
0.250313
0.160222
0.2691
0.124971
0.36564
0.149193
0.470333
0.247852
0.123678
0.316091
0.320993
0.25683
0.447594
0.205942
0.221488
0.275614
0.307428
0.278641
0.158669
0.168802
0.208852
0.223058
0.211239
0.115807
0.0144996
0.290042
0.258793
0.251271
0.15748
0.259261
0.274002
0.274604
0.342528
0.162034
0.293728
0.252724
0.223124
0.264296
0.119518
0.383177
0.182249
0.250189
0.0376819
0.312389
0.311521
0.128324
0.37201
0.288603
0.407477
0.341917
0.203044
0.266457
0.378126
0.242668
0.160867
0.115742
0.137846
0.311978
0.317067
0.2961
0.287016
0.131283
0.381007
0.213954
0.247972
0.114506
0.353109
0.297617
0.196944
0.294556
0.418967
0.317063
0.333289
0.195826
0.236387
0.0650947
0.269253
0.279483
0.174154
0.0542732
0.156861
0.320921
0.305736
0.197085
0.207675
0.382263
0.212383
0.252816
0.191099
0.0545028
0.184544
0.073323
0.262001
0.190176
0.471662
0.406881
0.314395
0.37297
0.386863
0.273201
0.172401
0.394098
0.0796337
0.233287
0.218451
0.181013
0.205195
0.248369
0.157531
0.248674
0.255007
0.209084
0.124934
0.198694
0.219284
0.200007
0.326973
0.107807
0.308102
0.301038
0.351521
0.173463
0.334332
0.316648
0.0273784
0.250599
0.157315
0.146354
0.153925
0.432456
0.265486
0.255948
0.364106
0.310717
0.247157
0.279539
0.171006
0.245139
0.331003
0.295963
0.184925
0.244005
0.212993
0.266026
0.322929
0.202514
0.259541
0.0521753
0.174937
0.129056
0.290235
0.278356
0.224617
0.303129
0.13325
0.05357
0.136953
0.247776
0.250986
0.372275
0.34178
0.34502
0.0166389
0.192001
0.252653
0.268353
0.173942
0.179674
0.287656
0.258046
0.353895
0.249457
0.245782
0.170936
0.227705
0.209616
0.259941
0.199644
0.271928
0.0410049
0.349163
0.271282
0.396592
0.269351
0.403869
0.327949
0.288825
0.15448
0.203851
0.205028
0.493095
0.114835
0.364833
0.200599
0.27905
0.434584
0.149847
0.358621
0.223938
0.20045
0.25448
0.322748
0.166119
0.14392
0.298364
0.356953
0.262085
0.344171
0.391288
0.382829
0.230362
0.291071
0.43384
0.293127
0.241488
0.160842
0.242767
0.256781
0.341366
0.264703
0.248322
0.0837046
0.219648
0.324988
0.325301
0.252134
0.248338
0.247326
0.0781604
0.0835182
0.267235
0.19959
0.239412
0.173031
0.269509
0.169198
0.171501
0.202162
0.212478
0.340766
0.259268
0.358192
0.329575
0.155107
0.18736
0.275353
0.175563
0.281635
0.371182
0.225018
0.193441
0.0841401
0.433658
0.179142
0.130146
0.417703
0.153794
0.403496
0.244369
0.0920348
0.122155
0.25629
0.279613
0.0938161
0.316196
0.196794
0.427838
0.354307
0.240689
0.213327
0.420608
0.252902
0.157505
0.339933
0.248508
0.258207
0.229089
0.273899
0.147353
0.149565
0.122328
0.158679
0.0833368
0.131778
0.354747
0.372654
0.230804
0.123284
0.379492
0.201689
0.329545
0.278073
0.467249
0.276988
0.255603
0.0740551
0.354906
0.357472
0.307179
0.332144
0.365777
0.154277
0.397191
0.129246
0.105463
0.265759
0.258669
0.169153
0.0927497
0.379452
0.249196
0.371211
0.246729
0.255353
0.269928
0.444132
0.302564
0.285831
0.199887
0.103906
0.320708
0.180962
0.156423
0.441984
0.337359
0.213641
0.288642
0.410242
0.265654
0.363906
0.138611
0.25686
0.199634
0.0838307
0.404381
0.381007
0.19405
0.346324
0.341466
0.242612
0.426752
0.380053
0.118011
0.226388
0.440331
0.322352
0.279076
0.178521
0.304138
0.279725
0.240446
0.291531
0.223133
0.286824
0.214717
0.204286
0.23041
0.210232
0.252265
0.298803
0.337873
0.376777
0.213027
0.362595
0.32332
0.226158
0.231957
0.350697
0.289363
0.139172
0.292121
0.444228
0.309121
0.299983
0.235932
0.153997
0.374175
0.420277
0.182278
0.149004
0.167869
0.20132
0.422139
0.0552196
0.159535
0.298979
0.215919
0.221326
0.248086
0.445682
0.152857
0.173586
0.250082
0.1641
0.356866
0.262627
0.175484
0.194257
0.228195
0.229773
0.408347
0.277918
0.398557
0.437991
0.321325
0.297045
0.391953
0.117568
0.291854
0.251741
0.44675
0.273188
0.306075
0.266877
0.261223
0.191276
0.281674
0.397807
0.243528
0.224655
0.376843
0.262015
0.405132
0.454528
0.105263
0.364479
0.422191
0.202149
0.339466
0.202231
0.13047
0.157507
0.12062
0.295328
0.257429
0.313564
0.239903
0.281365
0.143856
0.351046
0.261029
0.0977665
0.271994
0.417663
0.00846883
0.0293103
0.162365
0.30243
0.378831
0.180254
0.270653
0.399235
0.355549
0.167973
0.336501
0.310114
0.233732
0.23572
0.178967
0.148916
0.161517
0.13152
0.0705484
0.208143
0.217275
0.336006
0.228599
0.0953433
0.0156345
0.147545
0.144165
0.430297
0.26095
0.285895
0.169156
0.413878
0.315466
0.192297
0.316117
0.100796
0.449967
0.143404
0.374476
0.0994054
0.180133
0.197757
0.223085
0.285528
0.221417
0.244051
0.227609
0.204365
0.0825932
0.264964
0.0564072
0.395557
0.289518
0.343476
0.253896
0.378247
0.0966253
0.158603
0.241672
0.394448
0.170535
0.226481
0.100229
0.339769
0.205777
0.249174
0.175485
0.208269
0.406162
0.280286
0.205715
0.352049
0.149907
0.202869
0.245436
0.235465
0.25768
0.245206
0.0174667
0.246994
0.135318
0.340313
0.287937
0.337682
0.136687
0.176862
0.206469
0.250445
0.189047
0.454108
0.280902
0.236977
0.221664
0.188573
-0.114824
0.293358
0.265412
0.358032
0.291776
0.14323
0.274131
0.336009
0.373315
0.301755
0.225572
0.396891
0.0752414
0.210184
0.236686
0.374316
0.197263
0.0616605
0.201918
0.205143
0.24191
0.283963
0.165307
0.291026
0.0914621
0.133563
0.249318
0.145018
0.345498
0.103239
0.299921
0.293068
0.259776
0.143112
0.3047
0.271172
0.0982889
0.313348
0.0813106
0.164635
0.371228
0.250544
0.0498631
0.23496
0.226181
0.169543
0.18822
0.211256
0.173072
0.225811
0.148661
0.356941
0.363233
0.203005
0.3907
0.0214638
0.403142
0.130718
0.191035
0.0672808
0.455245
0.330877
0.371913
0.136648
0.360758
0.411808
0.324201
0.12938
0.477556
0.4504
0.411035
0.144967
0.27323
0.0406663
0.216184
0.206919
0.324269
0.325757
0.234341
0.205306
0.400106
0.0970641
0.141054
0.480061
0.31754
0.0859719
0.224387
0.19304
0.176589
0.385325
0.0855275
0.44828
0.102056
0.491703
0.0922985
0.391931
0.295069
0.390056
0.406785
0.177783
0.472188
0.341058
0.253949
0.189735
0.379113
0.200723
0.264289
0.151097
0.212998
0.166544
0.191991
0.449889
0.298321
0.285583
0.13563
0.342474
0.231158
0.37157
0.33966
0.0885364
0.298991
0.124361
0.188462
0.262617
0.216264
0.271194
0.241059
0.284795
0.373389
0.371872
0.178413
0.0875399
0.169269
0.228284
0.16484
0.221863
0.337372
-0.0521349
0.325467
0.369096
0.19446
0.397701
0.323877
0.124015
0.200286
0.25273
0.436034
0.270447
0.305415
0.145681
0.127119
0.106733
0.31352
0.177533
0.292808
0.189736
0.125955
0.25176
0.222268
0.344072
0.247328
0.121099
0.232434
0.17643
0.137404
0.289007
0.316321
0.0531265
0.316372
0.278171
0.164094
0.0681551
0.409664
0.265713
0.329576
0.359348
0.279224
0.507841
0.209716
0.31266
0.264802
0.324877
0.192586
0.0878903
0.207515
0.127696
0.234751
0.240109
0.384339
0.165439
0.274813
0.234675
0.305141
0.273404
0.254602
0.214171
0.18599
0.30553
0.167716
0.224395
0.208999
0.316184
0.392236
0.257564
0.408887
0.411961
0.254828
0.282274
0.36811
0.398893
0.0887077
0.331602
0.30634
0.464021
0.246047
0.113431
0.358891
0.180511
0.341607
0.257742
0.227298
0.245869
0.287343
-0.00249373
0.279841
0.168438
0.17649
0.268331
0.259838
0.192541
0.273262
0.395505
0.106622
0.37402
0.213304
0.301429
0.190262
0.293471
0.177435
0.234295
0.190202
0.372765
0.232546
0.0629443
0.218887
0.17153
0.240288
0.159371
0.187086
0.443241
0.196945
0.0698369
0.299982
0.280122
0.345247
0.338813
0.213761
0.3811
0.408038
0.235496
0.370454
0.230758
0.250137
0.39506
-0.0577599
0.157468
0.192448
0.270882
0.278001
0.396928
0.207912
0.31412
0.142837
0.383303
0.391368
0.224497
0.109657
0.25192
0.186312
0.328691
0.207756
0.418327
0.227621
0.293934
0.200315
0.249438
0.239724
0.159053
0.198303
-0.00909572
0.330635
0.202664
0.355771
0.243466
0.180708
0.386737
0.207081
0.341217
0.176031
0.350111
0.138748
0.278983
0.0844735
0.318289
0.310802
0.399646
0.137493
0.283338
0.232557
0.169882
0.289837
0.126294
0.27074
0.1862
0.293081
0.155225
0.389893
0.273207
0.185984
0.256526
0.30902
0.262794
0.260244
0.442765
0.252821
0.269543
0.298513
0.220103
0.090241
0.331049
0.412999
0.156296
0.198499
0.216635
0.248676
0.396275