# vtk DataFile Version 2.0
Vtkoutput example
ASCII

DATASET UNSTRUCTURED_GRID
POINTS 33124 float
0.252539 0.252539 0.0
0.255273 0.252539 0.0
0.258008 0.252539 0.0
0.260742 0.252539 0.0
0.263477 0.252539 0.0
0.266211 0.252539 0.0
0.268945 0.252539 0.0
0.27168 0.252539 0.0
0.274414 0.252539 0.0
0.277148 0.252539 0.0
0.279883 0.252539 0.0
0.282617 0.252539 0.0
0.285352 0.252539 0.0
0.288086 0.252539 0.0
0.29082 0.252539 0.0
0.293555 0.252539 0.0
0.296289 0.252539 0.0
0.299023 0.252539 0.0
0.301758 0.252539 0.0
0.304492 0.252539 0.0
0.307227 0.252539 0.0
0.309961 0.252539 0.0
0.312695 0.252539 0.0
0.31543 0.252539 0.0
0.318164 0.252539 0.0
0.320898 0.252539 0.0
0.323633 0.252539 0.0
0.326367 0.252539 0.0
0.329102 0.252539 0.0
0.331836 0.252539 0.0
0.33457 0.252539 0.0
0.337305 0.252539 0.0
0.340039 0.252539 0.0
0.342773 0.252539 0.0
0.345508 0.252539 0.0
0.348242 0.252539 0.0
0.350977 0.252539 0.0
0.353711 0.252539 0.0
0.356445 0.252539 0.0
0.35918 0.252539 0.0
0.361914 0.252539 0.0
0.364648 0.252539 0.0
0.367383 0.252539 0.0
0.370117 0.252539 0.0
0.372852 0.252539 0.0
0.375586 0.252539 0.0
0.37832 0.252539 0.0
0.381055 0.252539 0.0
0.383789 0.252539 0.0
0.386523 0.252539 0.0
0.389258 0.252539 0.0
0.391992 0.252539 0.0
0.394727 0.252539 0.0
0.397461 0.252539 0.0
0.400195 0.252539 0.0
0.40293 0.252539 0.0
0.405664 0.252539 0.0
0.408398 0.252539 0.0
0.411133 0.252539 0.0
0.413867 0.252539 0.0
0.416602 0.252539 0.0
0.419336 0.252539 0.0
0.42207 0.252539 0.0
0.424805 0.252539 0.0
0.427539 0.252539 0.0
0.430273 0.252539 0.0
0.433008 0.252539 0.0
0.435742 0.252539 0.0
0.438477 0.252539 0.0
0.441211 0.252539 0.0
0.443945 0.252539 0.0
0.44668 0.252539 0.0
0.449414 0.252539 0.0
0.452148 0.252539 0.0
0.454883 0.252539 0.0
0.457617 0.252539 0.0
0.460352 0.252539 0.0
0.463086 0.252539 0.0
0.46582 0.252539 0.0
0.468555 0.252539 0.0
0.471289 0.252539 0.0
0.474023 0.252539 0.0
0.476758 0.252539 0.0
0.479492 0.252539 0.0
0.482227 0.252539 0.0
0.484961 0.252539 0.0
0.487695 0.252539 0.0
0.49043 0.252539 0.0
0.493164 0.252539 0.0
0.495898 0.252539 0.0
0.498633 0.252539 0.0
0.501367 0.252539 0.0
0.504102 0.252539 0.0
0.506836 0.252539 0.0
0.50957 0.252539 0.0
0.512305 0.252539 0.0
0.515039 0.252539 0.0
0.517773 0.252539 0.0
0.520508 0.252539 0.0
0.523242 0.252539 0.0
0.525977 0.252539 0.0
0.528711 0.252539 0.0
0.531445 0.252539 0.0
0.53418 0.252539 0.0
0.536914 0.252539 0.0
0.539648 0.252539 0.0
0.542383 0.252539 0.0
0.545117 0.252539 0.0
0.547852 0.252539 0.0
0.550586 0.252539 0.0
0.55332 0.252539 0.0
0.556055 0.252539 0.0
0.558789 0.252539 0.0
0.561523 0.252539 0.0
0.564258 0.252539 0.0
0.566992 0.252539 0.0
0.569727 0.252539 0.0
0.572461 0.252539 0.0
0.575195 0.252539 0.0
0.57793 0.252539 0.0
0.580664 0.252539 0.0
0.583398 0.252539 0.0
0.586133 0.252539 0.0
0.588867 0.252539 0.0
0.591602 0.252539 0.0
0.594336 0.252539 0.0
0.59707 0.252539 0.0
0.599805 0.252539 0.0
0.602539 0.252539 0.0
0.605273 0.252539 0.0
0.608008 0.252539 0.0
0.610742 0.252539 0.0
0.613477 0.252539 0.0
0.616211 0.252539 0.0
0.618945 0.252539 0.0
0.62168 0.252539 0.0
0.624414 0.252539 0.0
0.627148 0.252539 0.0
0.629883 0.252539 0.0
0.632617 0.252539 0.0
0.635352 0.252539 0.0
0.638086 0.252539 0.0
0.64082 0.252539 0.0
0.643555 0.252539 0.0
0.646289 0.252539 0.0
0.649023 0.252539 0.0
0.651758 0.252539 0.0
0.654492 0.252539 0.0
0.657227 0.252539 0.0
0.659961 0.252539 0.0
0.662695 0.252539 0.0
0.66543 0.252539 0.0
0.668164 0.252539 0.0
0.670898 0.252539 0.0
0.673633 0.252539 0.0
0.676367 0.252539 0.0
0.679102 0.252539 0.0
0.681836 0.252539 0.0
0.68457 0.252539 0.0
0.687305 0.252539 0.0
0.690039 0.252539 0.0
0.692773 0.252539 0.0
0.695508 0.252539 0.0
0.698242 0.252539 0.0
0.700977 0.252539 0.0
0.703711 0.252539 0.0
0.706445 0.252539 0.0
0.70918 0.252539 0.0
0.711914 0.252539 0.0
0.714648 0.252539 0.0
0.717383 0.252539 0.0
0.720117 0.252539 0.0
0.722852 0.252539 0.0
0.725586 0.252539 0.0
0.72832 0.252539 0.0
0.731055 0.252539 0.0
0.733789 0.252539 0.0
0.736523 0.252539 0.0
0.739258 0.252539 0.0
0.741992 0.252539 0.0
0.744727 0.252539 0.0
0.747461 0.252539 0.0
0.252539 0.255273 0.0
0.255273 0.255273 0.0
0.258008 0.255273 0.0
0.260742 0.255273 0.0
0.263477 0.255273 0.0
0.266211 0.255273 0.0
0.268945 0.255273 0.0
0.27168 0.255273 0.0
0.274414 0.255273 0.0
0.277148 0.255273 0.0
0.279883 0.255273 0.0
0.282617 0.255273 0.0
0.285352 0.255273 0.0
0.288086 0.255273 0.0
0.29082 0.255273 0.0
0.293555 0.255273 0.0
0.296289 0.255273 0.0
0.299023 0.255273 0.0
0.301758 0.255273 0.0
0.304492 0.255273 0.0
0.307227 0.255273 0.0
0.309961 0.255273 0.0
0.312695 0.255273 0.0
0.31543 0.255273 0.0
0.318164 0.255273 0.0
0.320898 0.255273 0.0
0.323633 0.255273 0.0
0.326367 0.255273 0.0
0.329102 0.255273 0.0
0.331836 0.255273 0.0
0.33457 0.255273 0.0
0.337305 0.255273 0.0
0.340039 0.255273 0.0
0.342773 0.255273 0.0
0.345508 0.255273 0.0
0.348242 0.255273 0.0
0.350977 0.255273 0.0
0.353711 0.255273 0.0
0.356445 0.255273 0.0
0.35918 0.255273 0.0
0.361914 0.255273 0.0
0.364648 0.255273 0.0
0.367383 0.255273 0.0
0.370117 0.255273 0.0
0.372852 0.255273 0.0
0.375586 0.255273 0.0
0.37832 0.255273 0.0
0.381055 0.255273 0.0
0.383789 0.255273 0.0
0.386523 0.255273 0.0
0.389258 0.255273 0.0
0.391992 0.255273 0.0
0.394727 0.255273 0.0
0.397461 0.255273 0.0
0.400195 0.255273 0.0
0.40293 0.255273 0.0
0.405664 0.255273 0.0
0.408398 0.255273 0.0
0.411133 0.255273 0.0
0.413867 0.255273 0.0
0.416602 0.255273 0.0
0.419336 0.255273 0.0
0.42207 0.255273 0.0
0.424805 0.255273 0.0
0.427539 0.255273 0.0
0.430273 0.255273 0.0
0.433008 0.255273 0.0
0.435742 0.255273 0.0
0.438477 0.255273 0.0
0.441211 0.255273 0.0
0.443945 0.255273 0.0
0.44668 0.255273 0.0
0.449414 0.255273 0.0
0.452148 0.255273 0.0
0.454883 0.255273 0.0
0.457617 0.255273 0.0
0.460352 0.255273 0.0
0.463086 0.255273 0.0
0.46582 0.255273 0.0
0.468555 0.255273 0.0
0.471289 0.255273 0.0
0.474023 0.255273 0.0
0.476758 0.255273 0.0
0.479492 0.255273 0.0
0.482227 0.255273 0.0
0.484961 0.255273 0.0
0.487695 0.255273 0.0
0.49043 0.255273 0.0
0.493164 0.255273 0.0
0.495898 0.255273 0.0
0.498633 0.255273 0.0
0.501367 0.255273 0.0
0.504102 0.255273 0.0
0.506836 0.255273 0.0
0.50957 0.255273 0.0
0.512305 0.255273 0.0
0.515039 0.255273 0.0
0.517773 0.255273 0.0
0.520508 0.255273 0.0
0.523242 0.255273 0.0
0.525977 0.255273 0.0
0.528711 0.255273 0.0
0.531445 0.255273 0.0
0.53418 0.255273 0.0
0.536914 0.255273 0.0
0.539648 0.255273 0.0
0.542383 0.255273 0.0
0.545117 0.255273 0.0
0.547852 0.255273 0.0
0.550586 0.255273 0.0
0.55332 0.255273 0.0
0.556055 0.255273 0.0
0.558789 0.255273 0.0
0.561523 0.255273 0.0
0.564258 0.255273 0.0
0.566992 0.255273 0.0
0.569727 0.255273 0.0
0.572461 0.255273 0.0
0.575195 0.255273 0.0
0.57793 0.255273 0.0
0.580664 0.255273 0.0
0.583398 0.255273 0.0
0.586133 0.255273 0.0
0.588867 0.255273 0.0
0.591602 0.255273 0.0
0.594336 0.255273 0.0
0.59707 0.255273 0.0
0.599805 0.255273 0.0
0.602539 0.255273 0.0
0.605273 0.255273 0.0
0.608008 0.255273 0.0
0.610742 0.255273 0.0
0.613477 0.255273 0.0
0.616211 0.255273 0.0
0.618945 0.255273 0.0
0.62168 0.255273 0.0
0.624414 0.255273 0.0
0.627148 0.255273 0.0
0.629883 0.255273 0.0
0.632617 0.255273 0.0
0.635352 0.255273 0.0
0.638086 0.255273 0.0
0.64082 0.255273 0.0
0.643555 0.255273 0.0
0.646289 0.255273 0.0
0.649023 0.255273 0.0
0.651758 0.255273 0.0
0.654492 0.255273 0.0
0.657227 0.255273 0.0
0.659961 0.255273 0.0
0.662695 0.255273 0.0
0.66543 0.255273 0.0
0.668164 0.255273 0.0
0.670898 0.255273 0.0
0.673633 0.255273 0.0
0.676367 0.255273 0.0
0.679102 0.255273 0.0
0.681836 0.255273 0.0
0.68457 0.255273 0.0
0.687305 0.255273 0.0
0.690039 0.255273 0.0
0.692773 0.255273 0.0
0.695508 0.255273 0.0
0.698242 0.255273 0.0
0.700977 0.255273 0.0
0.703711 0.255273 0.0
0.706445 0.255273 0.0
0.70918 0.255273 0.0
0.711914 0.255273 0.0
0.714648 0.255273 0.0
0.717383 0.255273 0.0
0.720117 0.255273 0.0
0.722852 0.255273 0.0
0.725586 0.255273 0.0
0.72832 0.255273 0.0
0.731055 0.255273 0.0
0.733789 0.255273 0.0
0.736523 0.255273 0.0
0.739258 0.255273 0.0
0.741992 0.255273 0.0
0.744727 0.255273 0.0
0.747461 0.255273 0.0
0.252539 0.258008 0.0
0.255273 0.258008 0.0
0.258008 0.258008 0.0
0.260742 0.258008 0.0
0.263477 0.258008 0.0
0.266211 0.258008 0.0
0.268945 0.258008 0.0
0.27168 0.258008 0.0
0.274414 0.258008 0.0
0.277148 0.258008 0.0
0.279883 0.258008 0.0
0.282617 0.258008 0.0
0.285352 0.258008 0.0
0.288086 0.258008 0.0
0.29082 0.258008 0.0
0.293555 0.258008 0.0
0.296289 0.258008 0.0
0.299023 0.258008 0.0
0.301758 0.258008 0.0
0.304492 0.258008 0.0
0.307227 0.258008 0.0
0.309961 0.258008 0.0
0.312695 0.258008 0.0
0.31543 0.258008 0.0
0.318164 0.258008 0.0
0.320898 0.258008 0.0
0.323633 0.258008 0.0
0.326367 0.258008 0.0
0.329102 0.258008 0.0
0.331836 0.258008 0.0
0.33457 0.258008 0.0
0.337305 0.258008 0.0
0.340039 0.258008 0.0
0.342773 0.258008 0.0
0.345508 0.258008 0.0
0.348242 0.258008 0.0
0.350977 0.258008 0.0
0.353711 0.258008 0.0
0.356445 0.258008 0.0
0.35918 0.258008 0.0
0.361914 0.258008 0.0
0.364648 0.258008 0.0
0.367383 0.258008 0.0
0.370117 0.258008 0.0
0.372852 0.258008 0.0
0.375586 0.258008 0.0
0.37832 0.258008 0.0
0.381055 0.258008 0.0
0.383789 0.258008 0.0
0.386523 0.258008 0.0
0.389258 0.258008 0.0
0.391992 0.258008 0.0
0.394727 0.258008 0.0
0.397461 0.258008 0.0
0.400195 0.258008 0.0
0.40293 0.258008 0.0
0.405664 0.258008 0.0
0.408398 0.258008 0.0
0.411133 0.258008 0.0
0.413867 0.258008 0.0
0.416602 0.258008 0.0
0.419336 0.258008 0.0
0.42207 0.258008 0.0
0.424805 0.258008 0.0
0.427539 0.258008 0.0
0.430273 0.258008 0.0
0.433008 0.258008 0.0
0.435742 0.258008 0.0
0.438477 0.258008 0.0
0.441211 0.258008 0.0
0.443945 0.258008 0.0
0.44668 0.258008 0.0
0.449414 0.258008 0.0
0.452148 0.258008 0.0
0.454883 0.258008 0.0
0.457617 0.258008 0.0
0.460352 0.258008 0.0
0.463086 0.258008 0.0
0.46582 0.258008 0.0
0.468555 0.258008 0.0
0.471289 0.258008 0.0
0.474023 0.258008 0.0
0.476758 0.258008 0.0
0.479492 0.258008 0.0
0.482227 0.258008 0.0
0.484961 0.258008 0.0
0.487695 0.258008 0.0
0.49043 0.258008 0.0
[...]
POINT_DATA 33124
SCALARS Intensity float 1
LOOKUP_TABLE default
-0.437379
-0.185303
0.0795862
0.338509
0.573136
0.766878
0.906057
0.980871
0.986079
0.92137
0.791379
0.605353
0.376501
0.12105
-0.142895
-0.396638
-0.62221
-0.803636
-0.928069
-0.986693
-0.975349
-0.894827
-0.750813
-0.553488
-0.316811
-0.0575306
0.205991
0.455083
0.672078
0.841568
0.951494
0.994001
0.966001
0.869396
0.71095
0.501814
0.256752
-0.00690852
-0.27049
-0.515292
-0.72294
-0.878788
-0.972069
-0.99628
-0.949811
-0.836057
-0.66317
-0.443471
-0.192577
0.0717074
0.330651
0.56592
0.760875
0.90174
0.978579
0.985991
0.92349
0.795536
0.611216
0.383604
0.12883
-0.135056
-0.389362
-0.616073
-0.799125
-0.925542
-0.986352
-0.977221
-0.898766
-0.756508
-0.560489
-0.324564
-0.0654221
0.198588
0.448755
0.66733
0.83878
0.95089
0.995636
0.96975
0.874968
0.717906
0.509609
0.264769
0.000704968
-0.263003
-0.507643
-0.715918
-0.87313
-0.96822
-0.994538
-0.950308
-0.83875
-0.667839
-0.449742
-0.199951
0.0638169
0.322869
0.558864
0.755101
0.897705
0.976601
0.986224
0.925915
0.799959
0.617286
0.390838
0.136655
-0.127261
-0.382215
-0.610141
-0.79488
-0.923321
-0.986333
-0.979409
-0.902989
-0.762434
-0.567651
-0.332395
-0.0733035
0.191282
0.442605
0.662826
0.836284
0.950606
0.997591
0.973797
0.880685
0.723745
0.51574
0.27149
0.00835339
-0.255002
-0.499923
-0.709088
-0.867729
-0.96467
-0.993117
-0.951123
-0.841732
-0.672748
-0.456186
-0.207417
0.0559212
0.315171
0.551972
0.749562
0.893956
0.974938
0.986779
0.928643
0.804643
0.623556
0.398196
0.144518
-0.119516
-0.375203
-0.604418
-0.790902
-0.921407
-0.986636
-0.981909
-0.907491
-0.768586
-0.574968
-0.340299
-0.0811685
0.184079
0.436638
0.658571
0.834083
0.950296
0.997811
0.974489
0.882101
0.727301
0.521148
0.278316
0.0160556
-0.247036
-0.492324
-0.702456
-0.437379
-0.185303
0.0795862
0.338509
0.573136
0.766878
0.906057
0.980871
0.986079
0.92137
0.791379
0.605353
0.376501
0.12105
-0.142895
-0.396638
-0.62221
-0.803636
-0.928069
-0.986693
-0.975349
-0.894827
-0.750813
-0.553488
-0.316811
-0.0575306
0.205991
0.455083
0.672078
0.841568
0.951494
0.994001
0.966001
0.869396
0.71095
0.501814
0.256752
-0.00690852
-0.27049
-0.515292
-0.72294
-0.878788
-0.972069
-0.99628
-0.949811
-0.836057
-0.66317
-0.443471
-0.192577
0.0717074
0.330651
0.56592
0.760875
0.90174
0.978579
0.985991
0.92349
0.795536
0.611216
0.383604
0.12883
-0.135056
-0.389362
-0.616073
-0.799125
-0.925542
-0.986352
-0.977221
-0.898766
-0.756508
-0.560489
-0.324564
-0.0654221
0.198588
0.448755
0.66733
0.83878
0.95089
0.995636
0.96975
0.874968
0.717906
0.509609
0.264769
0.000704968
-0.263003
-0.507643
-0.715918
-0.87313
-0.96822
-0.994538
-0.950308
-0.83875
-0.667839
-0.449742
-0.199951
0.0638169
0.322869
0.558864
0.755101
0.897705
0.976601
0.986224
0.925915
0.799959
0.617286
0.390838
0.136655
-0.127261
-0.382215
-0.610141
-0.79488
-0.923321
-0.986333
-0.979409
-0.902989
-0.762434
-0.567651
-0.332395
-0.0733035
0.191282
0.442605
0.662826
0.836284
0.950606
0.997591
0.973797
0.880685
0.723745
0.51574
0.27149
0.00835339
-0.255002
-0.499923
-0.709088
-0.867729
-0.96467
-0.993117
-0.951123
-0.841732
-0.672748
-0.456186
-0.207417
0.0559212
0.315171
0.551972
0.749562
0.893956
0.974938
0.986779
0.928643
0.804643
0.623556
0.398196
0.144518
-0.119516
-0.375203
-0.604418
-0.790902
-0.921407
-0.986636
-0.981909
-0.907491
-0.768586
-0.574968
-0.340299
-0.0811685
0.184079
0.436638
0.658571
0.834083
0.950296
0.997811
0.974489
0.882101
0.727301
0.521148
0.278316
0.0160556
-0.247036
-0.492324
-0.702456
-0.437379
-0.185303
0.0795862
0.338509
0.573136
0.766878
0.906057
0.980871
0.986079
0.92137
0.791379
0.605353
0.376501
0.12105
-0.142895
-0.396638
-0.62221
-0.803636
-0.928069
-0.986693
-0.975349
-0.894827
-0.750813
-0.553488
-0.316811
-0.0575306
0.205991
0.455083
0.672078
0.841568
0.951494
0.994001
0.966001
0.869396
0.71095
0.501814
0.256752
-0.00690852
-0.27049
-0.515292
-0.72294
-0.878788
-0.972069
-0.99628
-0.949811
-0.836057
-0.66317
-0.443471
-0.192577
0.0717074
0.330651
0.56592
0.760875
0.90174
0.978579
0.985991
0.92349
0.795536
0.611216
0.383604
0.12883
-0.135056
-0.389362
-0.616073
-0.799125
-0.925542
-0.986352
-0.977221
-0.898766
-0.756508
-0.560489
-0.324564
-0.0654221
0.198588
0.448755
0.66733
0.83878
0.95089
0.995636
0.96975
0.874968
0.717906
0.509609
0.264769
0.000704968
-0.263003
-0.507643
-0.715918
-0.87313
-0.96822
-0.994538
-0.950308
-0.83875
-0.667839
-0.449742
-0.199951
0.0638169
0.322869
0.558864
0.755101
0.897705
0.976601
0.986224
0.925915
0.799959
0.617286
0.390838
0.136655
-0.127261
-0.382215
-0.610141
-0.79488
-0.923321
-0.986333
-0.979409
-0.902989
-0.762434
-0.567651
-0.332395
-0.0733035
0.191282
0.442605
0.662826
0.836284
0.950606
0.997591
0.973797
0.880685
0.723745
0.51574
0.27149
0.00835339
-0.255002
-0.499923
-0.709088
-0.867729
-0.96467
-0.993117
-0.951123
-0.841732
-0.672748
-0.456186
-0.207417
0.0559212
0.315171
0.551972
0.749562
0.893956
0.974938
0.986779
0.928643
0.804643
0.623556
0.398196
0.144518
-0.119516
-0.375203
-0.604418
-0.790902
-0.921407
-0.986636
-0.981909
-0.907491
-0.768586
-0.574968
-0.340299
-0.0811685
0.184079
0.436638
0.658571
0.834083
0.950296
0.997811
0.974489
0.882101
0.727301
0.521148
0.278316
0.0160556
-0.247036
-0.492324
-0.702456
-0.437379
-0.185303
0.0795862
0.338509
0.573136
0.766878
0.906057
0.980871
0.986079
0.92137
0.791379
0.605353
0.376501
0.12105
-0.142895
-0.396638
-0.62221
-0.803636
-0.928069
-0.986693
-0.975349
-0.894827
-0.750813
-0.553488
-0.316811
-0.0575306
0.205991
0.455083
0.672078
0.841568
0.951494
0.994001
0.966001
0.869396
0.71095
0.501814
0.256752
-0.00690852
-0.27049
-0.515292
-0.72294
-0.878788
-0.972069
-0.99628
-0.949811
-0.836057
-0.66317
-0.443471
-0.192577
0.0717074
0.330651
0.56592
0.760875
0.90174
0.978579
0.985991
0.92349
0.795536
0.611216
0.383604
0.12883
-0.135056
-0.389362
-0.616073
-0.799125
-0.925542
-0.986352
-0.977221
-0.898766
-0.756508
-0.560489
-0.324564
-0.0654221
0.198588
0.448755
0.66733
0.83878
0.95089
0.995636
0.96975
0.874968
0.717906
0.509609
0.264769
0.000704968
-0.263003
-0.507643
-0.715918
-0.87313
-0.96822
-0.994538
-0.950308
-0.83875
-0.667839
-0.449742
-0.199951
0.0638169
0.322869
0.558864
0.755101
0.897705
0.976601
0.986224
0.925915
0.799959
0.617286
0.390838
0.136655
-0.127261
-0.382215
-0.610141
-0.79488
-0.923321
-0.986333
-0.979409
-0.902989
-0.762434
-0.567651
-0.332395
-0.0733035
0.191282
0.442605
0.662826
0.836284
0.950606
0.997591
0.973797
0.880685
0.723745
0.51574
0.27149
0.00835339
-0.255002
-0.499923
-0.709088
-0.867729
-0.96467
-0.993117
-0.951123
-0.841732
-0.672748
-0.456186
-0.207417
0.0559212
0.315171
0.551972
0.749562
0.893956
0.974938
0.986779
0.928643
0.804643
0.623556
0.398196
0.144518
-0.119516
-0.375203
-0.604418
-0.790902
-0.921407
-0.986636
-0.981909
-0.907491
-0.768586
-0.574968
-0.340299
-0.0811685
0.184079
0.436638
0.658571
0.834083
0.950296
0.997811
0.974489
0.882101
0.727301
0.521148
0.278316
0.0160556
-0.247036
-0.492324
-0.702456
-0.437379
-0.185303
0.0795862
0.338509
0.573136
0.766878
0.906057
0.980871
0.986079
0.92137
0.791379
0.605353
0.376501
0.12105
-0.142895
-0.396638
-0.62221
-0.803636
-0.928069
-0.986693
-0.975349
-0.894827
-0.750813
-0.553488
-0.316811
-0.0575306
0.205991
0.455083
0.672078
0.841568
0.951494
0.994001
0.966001
0.869396
0.71095
0.501814
0.256752
-0.00690852
-0.27049
-0.515292
-0.72294
-0.878788
-0.972069
-0.99628
-0.949811
-0.836057
-0.66317
-0.443471
-0.192577
0.0717074
0.330651
0.56592
0.760875
0.90174
0.978579
0.985991
0.92349
0.795536
0.611216
0.383604
0.12883
-0.135056
-0.389362
-0.616073
-0.799125
-0.925542
-0.986352
-0.977221
-0.898766
-0.756508
-0.560489
-0.324564
-0.0654221
0.198588
0.448755
0.66733
0.83878
0.95089
0.995636
0.96975
0.874968
0.717906
0.509609
0.264769
0.000704968
-0.263003
-0.507643
-0.715918
-0.87313
-0.96822
-0.994538
-0.950308
-0.83875
-0.667839
-0.449742
-0.199951
0.0638169
0.322869
0.558864
0.755101
0.897705
0.976601
0.986224
0.925915
0.799959
0.617286
0.390838
0.136655
-0.127261
-0.382215
-0.610141
-0.79488
-0.923321
-0.986333
-0.979409
-0.902989
-0.762434
-0.567651
-0.332395
-0.0733035
0.191282
0.442605
0.662826
0.836284
0.950606
0.997591
0.973797
0.880685
0.723745
0.51574
0.27149
0.00835339
-0.255002
-0.499923
-0.709088
-0.867729
-0.96467
-0.993117
-0.951123
-0.841732
-0.672748
-0.456186
-0.207417
0.0559212
0.315171
0.551972
0.749562
0.893956
0.974938
0.986779
0.928643
0.804643
0.623556
0.398196
0.144518
-0.119516
-0.375203
-0.604418
-0.790902
-0.921407
-0.986636
-0.981909
-0.907491
-0.768586
-0.574968
-0.340299
-0.0811685
0.184079
0.436638
0.658571
0.834083
0.950296
0.997811
0.974489
0.882101
0.727301
0.521148
0.278316
0.0160556
-0.247036
-0.492324
-0.702456
-0.437379
-0.185303
0.0795862
0.338509
0.573136
0.766878
0.906057
0.980871
0.986079
0.92137
0.791379
0.605353
0.376501
0.12105
-0.142895
-0.396638
-0.62221
-0.803636
-0.928069
-0.986693
-0.975349
-0.894827
-0.750813
-0.553488
-0.316811
-0.0575306
0.205991
0.455083
0.672078
0.841568
0.951494
0.994001
0.966001
0.869396
0.71095
0.501814
0.256752
-0.00690852
-0.27049
-0.515292
-0.72294
-0.878788
-0.972069
-0.99628
-0.949811
-0.836057
-0.66317
-0.443471
-0.192577
0.0717074
0.330651
0.56592
0.760875
0.90174
0.978579
0.985991
0.92349
0.795536
0.611216
0.383604
0.12883
-0.135056
-0.389362
-0.616073
-0.799125
-0.925542
-0.986352
-0.977221
-0.898766
-0.756508
-0.560489
-0.324564
-0.0654221
0.198588
0.448755
0.66733
0.83878
0.95089
0.995636
0.96975
0.874968
0.717906
0.509609
0.264769
0.000704968
-0.263003
-0.507643
-0.715918
-0.87313
-0.96822
-0.994538
-0.950308
-0.83875
-0.667839
-0.449742
-0.199951
0.0638169
0.322869
0.558864
0.755101
0.897705
0.976601
0.986224
0.925915
0.799959
0.617286
0.390838
0.136655
-0.127261
-0.382215
-0.610141
-0.79488
-0.923321
-0.986333
-0.979409
-0.902989
-0.762434
-0.567651
-0.332395
-0.0733035
0.191282
0.442605
0.662826
0.836284
0.950606
0.997591
0.973797
0.880685
0.723745
0.51574
0.27149
0.00835339
-0.255002
-0.499923
-0.709088
-0.867729
-0.96467
-0.993117
-0.951123
-0.841732
-0.672748
-0.456186
-0.207417
0.0559212
0.315171
0.551972
0.749562
0.893956
0.974938
0.986779
0.928643
0.804643
0.623556
0.398196
0.144518
-0.119516
-0.375203
-0.604418
-0.790902
-0.921407
-0.986636
-0.981909
-0.907491
-0.768586
-0.574968
-0.340299
-0.0811685
0.184079
0.436638
0.658571
0.834083
0.950296
0.997811
0.974489
0.882101
0.727301
0.521148
0.278316
0.0160556
-0.247036
-0.492324
-0.702456
-0.437379
-0.185303
0.0795862
0.338509
0.573136
0.766878
0.906057
0.980871
0.986079
0.92137
0.791379
0.605353
0.376501
0.12105
-0.142895
-0.396638
-0.62221
-0.803636
-0.928069
-0.986693
-0.975349
-0.894827
-0.750813
-0.553488
-0.316811
-0.0575306
0.205991
0.455083
0.672078
0.841568
0.951494
0.994001
0.966001
0.869396
0.71095
0.501814
0.256752
-0.00690852
-0.27049
-0.515292
-0.72294
-0.878788
-0.972069
-0.99628
-0.949811
-0.836057
-0.66317
-0.443471
-0.192577
0.0717074
0.330651
0.56592
0.760875
0.90174
0.978579
0.985991
0.92349
0.795536
0.611216
0.383604
0.12883
-0.135056
-0.389362
-0.616073
-0.799125
-0.925542
-0.986352
-0.977221
-0.898766
-0.756508
-0.560489
-0.324564
-0.0654221
0.198588
0.448755
0.66733
0.83878
0.95089
0.995636
0.96975
0.874968
0.717906
0.509609
0.264769
0.000704968
-0.263003
-0.507643
-0.715918
-0.87313
-0.96822
-0.994538
-0.950308
-0.83875
-0.667839
-0.449742
-0.199951
0.0638169
0.322869
0.558864
0.755101
0.897705
0.976601
0.986224
0.925915
0.799959
0.617286
0.390838
0.136655
-0.127261
-0.382215
-0.610141
-0.79488
-0.923321
-0.986333
-0.979409
-0.902989
-0.762434
-0.567651
-0.332395
-0.0733035
0.191282
0.442605
0.662826
0.836284
0.950606
0.997591
0.973797
0.880685
0.723745
0.51574
0.27149
0.00835339
-0.255002
-0.499923
-0.709088
-0.867729
-0.96467
-0.993117
-0.951123
-0.841732
-0.672748
-0.456186
-0.207417
0.0559212
0.315171
0.551972
0.749562
0.893956
0.974938
0.986779
0.928643
0.804643
0.623556
0.398196
0.144518
-0.119516
-0.375203
-0.604418
-0.790902
-0.921407
-0.986636
-0.981909
-0.907491
-0.768586
-0.574968
-0.340299
-0.0811685
0.184079
0.436638
0.658571
0.834083
0.950296
0.997811
0.974489
0.882101
0.727301
0.521148
0.278316
0.0160556
-0.247036
-0.492324
-0.702456
-0.437379
-0.185303
0.0795862
0.338509
0.573136
0.766878
0.906057
0.980871
0.986079
0.92137
0.791379
0.605353
0.376501
0.12105
-0.142895
-0.396638
-0.62221
-0.803636
-0.928069
-0.986693
-0.975349
-0.894827
-0.750813
-0.553488
-0.316811
-0.0575306
0.205991
0.455083
0.672078
0.841568
0.951494
0.994001
0.966001
0.869396
0.71095
0.501814
0.256752
-0.00690852
-0.27049
-0.515292
-0.72294
-0.878788
-0.972069
-0.99628
-0.949811
-0.836057
-0.66317
-0.443471
-0.192577
0.0717074
0.330651
0.56592
0.760875
0.90174
0.978579
0.985991
0.92349
0.795536
0.611216
0.383604
0.12883
-0.135056
-0.389362
-0.616073
-0.799125
-0.925542
-0.986352
-0.977221
-0.898766
-0.756508
-0.560489
-0.324564
-0.0654221
0.198588
0.448755
0.66733
0.83878
0.95089
0.995636
0.96975
0.874968
0.717906
0.509609
0.264769
0.000704968
-0.263003
-0.507643
-0.715918
-0.87313
-0.96822
-0.994538
-0.950308
-0.83875
-0.667839
-0.449742
-0.199951
0.0638169
0.322869
0.558864
0.755101
0.897705
0.976601
0.986224
0.925915
0.799959
0.617286
0.390838
0.136655
-0.127261
-0.382215
-0.610141
-0.79488
-0.923321
-0.986333
-0.979409
-0.902989
-0.762434
-0.567651
-0.332395
-0.0733035
0.191282
0.442605
0.662826
0.836284
0.950606
0.997591
0.973797
0.880685
0.723745
0.51574
0.27149
0.00835339
-0.255002
-0.499923
-0.709088
-0.867729
-0.96467
-0.993117
-0.951123
-0.841732
-0.672748
-0.456186
-0.207417
0.0559212
0.315171
0.551972
0.749562
0.893956
0.974938
0.986779
0.928643
0.804643
0.623556
0.398196
0.144518
-0.119516
-0.375203
-0.604418
-0.790902
-0.921407
-0.986636
-0.981909
-0.907491
-0.768586
-0.574968
-0.340299
-0.0811685
0.184079
0.436638
0.658571
0.834083
0.950296
0.997811
0.974489
0.882101
0.727301
0.521148
0.278316
0.0160556
-0.247036
-0.492324
-0.702456
-0.437379
-0.185303
0.0795862
0.338509
0.573136
0.766878
0.906057
0.980871
0.986079
0.92137
0.791379
0.605353
0.376501
0.12105
-0.142895
-0.396638
-0.62221
-0.803636
-0.928069
-0.986693
-0.975349
-0.894827
-0.750813
-0.553488
-0.316811
-0.0575306
0.205991
0.455083
0.672078
0.841568
0.951494
0.994001
0.966001
0.869396
0.71095
0.501814
0.256752
-0.00690852
-0.27049
-0.515292
-0.72294
-0.878788
-0.972069
-0.99628
-0.949811
-0.836057
-0.66317
-0.443471
-0.192577
0.0717074
0.330651
0.56592
0.760875
0.90174
0.978579
0.985991
0.92349
0.795536
0.611216
0.383604
0.12883
-0.135056
-0.389362
-0.616073
-0.799125
-0.925542
-0.986352
-0.977221
-0.898766
-0.756508
-0.560489
-0.324564
-0.0654221
0.198588
0.448755
0.66733
0.83878
0.95089
0.995636
0.96975
0.874968
0.717906
0.509609
0.264769
0.000704968
-0.263003
-0.507643
-0.715918
-0.87313
-0.96822
-0.994538
-0.950308
-0.83875
-0.667839
-0.449742
-0.199951
0.0638169
0.322869
0.558864
0.755101
0.897705
0.976601
0.986224
0.925915
0.799959
0.617286
0.390838
0.136655
-0.127261
-0.382215
-0.610141
-0.79488
-0.923321
-0.986333
-0.979409
-0.902989
-0.762434
-0.567651
-0.332395
-0.0733035
0.191282
0.442605
0.662826
0.836284
0.950606
0.997591
0.973797
0.880685
0.723745
0.51574
0.27149
0.00835339
-0.255002
-0.499923
-0.709088
-0.867729
-0.96467
-0.993117
-0.951123
-0.841732
-0.672748
-0.456186
-0.207417
0.0559212
0.315171
0.551972
0.749562
0.893956
0.974938
0.986779
0.928643
0.804643
0.623556
0.398196
0.144518
-0.119516
-0.375203
-0.604418
-0.790902
-0.921407
-0.986636
-0.981909
-0.907491
-0.768586
-0.574968
-0.340299
-0.0811685
0.184079
0.436638
0.658571
0.834083
0.950296
0.997811
0.974489
0.882101
0.727301
0.521148
0.278316
0.0160556
-0.247036
-0.492324
-0.702456
-0.437379
-0.185303
0.0795862
0.338509
0.573136
0.766878
0.906057
0.980871
0.986079
0.92137
0.791379
0.605353
0.376501
0.12105
-0.142895
-0.396638
-0.62221
-0.803636
-0.928069
-0.986693
-0.975349
-0.894827
-0.750813
-0.553488
-0.316811
-0.0575306
0.205991
0.455083
0.672078
0.841568
0.951494
0.994001
0.966001
0.869396
0.71095
0.501814
0.256752
-0.00690852
-0.27049
-0.515292
-0.72294
-0.878788
-0.972069
-0.99628
-0.949811
-0.836057
-0.66317
-0.443471
-0.192577
0.0717074
0.330651
0.56592
0.760875
0.90174
0.978579
0.985991
0.92349
0.795536
0.611216
0.383604
0.12883
-0.135056
-0.389362
-0.616073
-0.799125
-0.925542
-0.986352
-0.977221
-0.898766
-0.756508
-0.560489
-0.324564
-0.0654221
0.198588
0.448755
0.66733
0.83878
0.95089
0.995636
0.96975
0.874968
0.717906
0.509609
0.264769
0.000704968
-0.263003
-0.507643
-0.715918
-0.87313
-0.96822
-0.994538
-0.950308
-0.83875
-0.667839
-0.449742
-0.199951
0.0638169
0.322869
0.558864
0.755101
0.897705
0.976601
0.986224
0.925915
0.799959
0.617286
0.390838
0.136655
-0.127261
-0.382215
-0.610141
-0.79488
-0.923321
-0.986333
-0.979409
-0.902989
-0.762434
-0.567651
-0.332395
-0.0733035
0.191282
0.442605
0.662826
0.836284
0.950606
0.997591
0.973797
0.880685
0.723745
0.51574
0.27149
0.00835339
-0.255002
-0.499923
-0.709088
-0.867729
-0.96467
-0.993117
-0.951123
-0.841732
-0.672748
-0.456186
-0.207417
0.0559212
0.315171
0.551972
0.749562
0.893956
0.974938
0.986779
0.928643
0.804643
0.623556
0.398196
0.144518
-0.119516
-0.375203
-0.604418
-0.790902
-0.921407
-0.986636
-0.981909
-0.907491
-0.768586
-0.574968
-0.340299
-0.0811685
0.184079
0.436638
0.658571
0.834083
0.950296
0.997811
0.974489
0.882101
0.727301
0.521148
0.278316
0.0160556
-0.247036
-0.492324
-0.702456
-0.437379
-0.185303
0.0795862
0.338509
0.573136
0.766878
0.906057
0.980871
0.986079
0.92137
0.791379
0.605353
0.376501
0.12105
-0.142895
-0.396638
-0.62221
-0.803636
-0.928069
-0.986693
-0.975349
-0.894827
-0.750813
-0.553488
-0.316811
-0.0575306
0.205991
0.455083
0.672078
0.841568
0.951494
0.994001
0.966001
0.869396
0.71095
0.501814
0.256752
-0.00690852
-0.27049
-0.515292
-0.72294
-0.878788
-0.972069
-0.99628
-0.949811
-0.836057
-0.66317
-0.443471
-0.192577
0.0717074
0.330651
0.56592
0.760875
0.90174
0.978579
0.985991
0.92349
0.795536
0.611216
0.383604
0.12883
-0.135056
-0.389362
-0.616073
-0.799125
-0.925542
-0.986352
-0.977221
-0.898766
-0.756508
-0.560489
-0.324564
-0.0654221
0.198588
0.448755
0.66733
0.83878
0.95089
0.995636
0.96975
0.874968
0.717906
0.509609
0.264769
0.000704968
-0.263003
-0.507643
-0.715918
-0.87313
-0.96822
-0.994538
-0.950308
-0.83875
-0.667839
-0.449742
-0.199951
0.0638169
0.322869
0.558864
0.755101
0.897705
0.976601
0.986224
0.925915
0.799959
0.617286
0.390838
0.136655
-0.127261
-0.382215
-0.610141
-0.79488
-0.923321
-0.986333
-0.979409
-0.902989
-0.762434
-0.567651
-0.332395
-0.0733035
0.191282
0.442605
0.662826
0.836284
0.950606
0.997591
0.973797
0.880685
0.723745
0.51574
0.27149
0.00835339
-0.255002
-0.499923
-0.709088
-0.867729
-0.96467
-0.993117
-0.951123
-0.841732
-0.672748
-0.456186
-0.207417
0.0559212
0.315171
0.551972
0.749562
0.893956
0.974938
0.986779
0.928643
0.804643
0.623556
0.398196
0.144518
-0.119516
-0.375203
-0.604418
-0.790902
-0.921407
-0.986636
-0.981909
-0.907491
-0.768586
-0.574968
-0.340299
-0.0811685
0.184079
0.436638
0.658571
0.834083
0.950296
0.997811
0.974489
0.882101
0.727301
0.521148
0.278316
0.0160556
-0.247036
-0.492324
-0.702456
-0.437379
-0.185303
0.0795862
0.338509
0.573136
0.766878
0.906057
0.980871
0.986079
0.92137
0.791379
0.605353
0.376501
0.12105
-0.142895
-0.396638
-0.62221
-0.803636
-0.928069
-0.986693
-0.975349
-0.894827
-0.750813
-0.553488
-0.316811
-0.0575306
0.205991
0.455083
0.672078
0.841568
0.951494
0.994001
0.966001
0.869396
0.71095
0.501814
0.256752
-0.00690852
-0.27049
-0.515292
-0.72294
-0.878788
-0.972069
-0.99628
-0.949811
-0.836057
-0.66317
-0.443471
-0.192577
0.0717074
0.330651
0.56592
0.760875
0.90174
0.978579
0.985991
0.92349
0.795536
0.611216
0.383604
0.12883
-0.135056
-0.389362
-0.616073
-0.799125
-0.925542
-0.986352
-0.977221
-0.898766
-0.756508
-0.560489
-0.324564
-0.0654221
0.198588
0.448755
0.66733
0.83878
0.95089
0.995636
0.96975
0.874968
0.717906
0.509609
0.264769
0.000704968
-0.263003
-0.507643
-0.715918
-0.87313
-0.96822
-0.994538
-0.950308
-0.83875
-0.667839
-0.449742
-0.199951
0.0638169
0.322869
0.558864
0.755101
0.897705
0.976601
0.986224
0.925915
0.799959
0.617286
0.390838
0.136655
-0.127261
-0.382215