# vtk DataFile Version 2.0
Vtkoutput example
ASCII

DATASET UNSTRUCTURED_GRID
POINTS 3366 float
0 0 0.0
0.002 0 0.0
0 0.002 0.0
0.004 0 0.0
0.006 0 0.0
0 0.004 0.0
0.003 0.0015 0.0
0.002 0.003 0.0
0.0045 0.0015 0.0
0 0.006 0.0
0.008 0 0.0
0.00666667 0.00133333 0.0
0.0016 0.0048 0.0
0.004 0.004 0.0
0.00533333 0.00266667 0.0
0.00133333 0.00666667 0.0
0 0.008 0.0
0.01 0 0.0
0.00875 0.0015 0.0
0.0075 0.003 0.0
0.00285714 0.00714286 0.0
0.00428571 0.00571429 0.0
0.00571429 0.00428571 0.0
0.00142857 0.00857143 0.0
0.003 0.009 0.0
0 0.01 0.0
0.012 0 0.0
0.0105 0.0015 0.0
0.009 0.003 0.0
0.008 0.00466667 0.0
0.0045 0.0075 0.0
0.00666667 0.00622222 0.0
0.0015 0.0105 0.0
0.0042 0.0098 0.0
0.0028 0.0112 0.0
0 0.012 0.0
0.014 0 0.0
0.0126 0.0014 0.0
0.0112 0.0028 0.0
0.0098 0.0042 0.0
0.00866667 0.00608333 0.0
0.016 0 0.0
0.018 0 0.0
0.00581818 0.00890909 0.0
0.00727273 0.00763636 0.0
0.0014 0.0126 0.0
0.00556154 0.0104385 0.0
0.00692308 0.0110769 0.0
0.00436364 0.0116364 0.0
0.00290909 0.0130909 0.0
0 0.014 0.0
0.0146667 0.0015 0.0
0.0130909 0.00290909 0.0
0.0116364 0.00436364 0.0
0.0101818 0.00581818 0.0
0.00933333 0.0075 0.0
0.0110769 0.00692308 0.0
0.02 0 0.0
0.0184615 0.00138462 0.0
0.0166154 0.00138462 0.0
0.016 0.00276923 0.0
0.0098 0.00908333 0.0
0.00830769 0.00969231 0.0
0.00145455 0.0145455 0.0
0.00857143 0.0114286 0.0
0.00553846 0.0124615 0.0
0.00714286 0.0128571 0.0
0.00415385 0.0138462 0.0
0.00276923 0.0152308 0.0
0 0.016 0.0
0.0138462 0.00415385 0.0
0.0153846 0.00415385 0.0
0.0124615 0.00553846 0.0
0.0128571 0.00714286 0.0
0.0114286 0.00857143 0.0
0.022 0 0.0
0.020625 0.001375 0.0
0.0190667 0.00266667 0.0
0.0176 0.004 0.0
0.0102667 0.0106667 0.0
0.00133333 0.0165 0.0
0.009625 0.012375 0.0
0.00825 0.01375 0.0
0.00571429 0.0142857 0.0
0.006875 0.015125 0.0
0.00428571 0.0157143 0.0
0.00285714 0.0171429 0.0
0 0.018 0.0
0.0165 0.0055 0.0
0.012375 0.009625 0.0
0.0130346 0.0111995 0.0
0.0146667 0.00666667 0.0
0.01375 0.00825 0.0
0.024 0 0.0
0.0227159 0.0017943 0.0
0.0207603 0.00357208 0.0
0.0184119 0.00547072 0.0
0.0195861 0.0045214 0.0
0.0116596 0.0125745 0.0
0.00146667 0.0186667 0.0
0.0101894 0.0143242 0.0
0.00884503 0.0156731 0.0
0.0055 0.0165 0.0
0.00728487 0.0172255 0.0
0.004125 0.017875 0.0
0.00317264 0.0191492 0.0
0 0.02 0.0
0.0136942 0.012774 0.0
0.0170385 0.0074795 0.0
0.0143146 0.0101988 0.0
0.0150217 0.0115862 0.0
0.0155604 0.00860459 0.0
0.026 0 0.0
0.0247066 0.00181771 0.0
0.0234318 0.0035886 0.0
0.0219651 0.00492193 0.0
0.0190383 0.00704074 0.0
0.0206818 0.0063386 0.0
0.028 0 0.0
0.0120059 0.0144316 0.0
0.001375 0.020625 0.0
0.0103177 0.0160891 0.0
0.0089429 0.0173874 0.0
0.00590987 0.0186005 0.0
0.00769474 0.019326 0.0
0.00487862 0.0196317 0.0
0.00315987 0.0213505 0.0
0 0.022 0.0
0.0144626 0.0142167 0.0
0.0157288 0.0129736 0.0
0.017577 0.00945899 0.0
0.0160723 0.0103342 0.0
0.0267016 0.00184869 0.0
0.0254132 0.00363542 0.0
0.0241477 0.0053829 0.0
0.0230477 0.0064829 0.0
0.0219477 0.0075829 0.0
0.0196647 0.00861075 0.0
0.03 0 0.0
0.0285946 0.00184857 0.0
0.032 0 0.0
0.0131964 0.0154599 0.0
0.0119302 0.016703 0.0
0.00178487 0.0227255 0.0
0.010664 0.0179461 0.0
0.00928935 0.019206 0.0
0.00878292 0.0207928 0.0
0.00631974 0.020701 0.0
0.00494474 0.022076 0.0
0.00356974 0.023451 0.0
0.0154106 0.015971 0.0
0 0.024 0.0
0.0194905 0.0100635 0.0
0.016587 0.014572 0.0
0.0177634 0.0131731 0.0
0.0181937 0.0113465 0.0
0.0272095 0.00363519 0.0
0.0261198 0.00545313 0.0
0.0248636 0.00717719 0.0
0.0236079 0.00885124 0.0
0.0209682 0.00966377 0.0
0.0305885 0.0018889 0.0
0.0291893 0.00369715 0.0
0.034 0 0.0
0.0325556 0.00183852 0.0
0.0142342 0.0173699 0.0
0.0130578 0.0187688 0.0
0.00181678 0.024725 0.0
0.0118814 0.0201678 0.0
0.0106211 0.0214132 0.0
0.00755461 0.0219765 0.0
0.00996952 0.0227765 0.0
0.00638586 0.0231452 0.0
0.00535461 0.0241765 0.0
0.00373948 0.0253164 0.0
0.0160289 0.0175223 0.0
0.0170431 0.0163638 0.0
0 0.026 0.0
0.021564 0.0113877 0.0
0.0201294 0.0119191 0.0
0.0185363 0.0151123 0.0
0.0197612 0.013369 0.0
0.0281047 0.00554608 0.0
0.0268264 0.00727085 0.0
0.0255795 0.00897149 0.0
0.0245027 0.010356 0.0
0.0232353 0.0112465 0.0
0.0311769 0.00377779 0.0
0.0297839 0.00554572 0.0
0.036 0 0.0
0.0345558 0.00189458 0.0
0.0331111 0.00367705 0.0
0.0148525 0.0189213 0.0
0.0136761 0.0203202 0.0
0.0018169 0.0266232 0.0
0.0124279 0.0220553 0.0
0.0116832 0.0234114 0.0
0.00851447 0.023527 0.0
0.0100249 0.0244824 0.0
0.00713947 0.024902 0.0
0.00560922 0.0259746 0.0
0.00363381 0.0272465 0.0
0.0166472 0.0190737 0.0
0.0186756 0.0167566 0.0
0.0176614 0.0179152 0.0
0 0.028 0.0
0.0217315 0.0135622 0.0
0.020374 0.0149198 0.0
0.0288063 0.00739478 0.0
0.0238859 0.0130305 0.0
0.0275304 0.00908188 0.0
0.02627 0.0107022 0.0
0.0250957 0.0118343 0.0
0.0317654 0.00566669 0.0
0.0306639 0.00717827 0.0
0.038 0 0.0
0.036437 0.00189446 0.0
0.0351116 0.00378916 0.0
0.0336667 0.00551557 0.0
0.04 0 0.0
0.042 0 0.0
0.0154708 0.0204726 0.0
0.0150107 0.0219064 0.0
0.0203081 0.0171495 0.0
0.00185809 0.028622 0.0
0.0129744 0.0239429 0.0
0.0117782 0.0251528 0.0
0.00892434 0.0256274 0.0
0.0106459 0.0263272 0.0
0.00747896 0.0266328 0.0
0.00545071 0.0278697 0.0
0.00371617 0.0292441 0.0
0.0172655 0.0206251 0.0
0.0187868 0.0188873 0.0
0 0.03 0.0
0.0233295 0.0152096 0.0
0.0218918 0.0155656 0.0
0.0248072 0.0153545 0.0
0.0290216 0.00908131 0.0
0.0256721 0.0139486 0.0
0.0282077 0.0108242 0.0
0.0269562 0.012422 0.0
0.0323539 0.00755558 0.0
0.031321 0.00894883 0.0
0.0384341 0.00196508 0.0
0.036874 0.00378891 0.0
0.0354029 0.00582162 0.0
0.0342222 0.0073541 0.0
0.0403083 0.00196521 0.0
0.044 0 0.0
0.0422827 0.00193267 0.0
0.0165753 0.0227758 0.0
0.0146963 0.0238436 0.0
0.0151517 0.0254166 0.0
0.0205815 0.0190397 0.0
0.0220521 0.0175689 0.0
0.00185809 0.0305152 0.0
0.013521 0.0258304 0.0
0.0123567 0.0270226 0.0
0.00907727 0.0276224 0.0
0.0108187 0.0283173 0.0
0.00726761 0.028493 0.0
0.00557426 0.0298661 0.0
0.00371617 0.0310303 0.0
0.0186001 0.0222113 0.0
0.0190602 0.0207775 0.0
0.01814 0.0236451 0.0
0 0.032 0.0
0.046 0 0.0
0.0249274 0.0168571 0.0
0.0234898 0.017213 0.0
0.0262849 0.0154995 0.0
0.0296012 0.0108235 0.0
0.0276424 0.0141418 0.0
0.0285685 0.0124938 0.0
0.0329288 0.00940089 0.0
0.0315352 0.01099 0.0
0.0388681 0.00393017 0.0
0.037311 0.00568337 0.0
0.0362232 0.00757832 0.0
0.0343688 0.00940089 0.0
0.0406167 0.00393042 0.0
0.044157 0.00193254 0.0
0.0425655 0.00386533 0.0
0.0167825 0.0250027 0.0
0.0156298 0.0268736 0.0
0.0208549 0.0209299 0.0
0.0222124 0.0195723 0.0
0.0240502 0.0194186 0.0
0.0187543 0.0251849 0.0
0.00195601 0.0324298 0.0
0.0140675 0.027718 0.0
0.0129261 0.0285503 0.0
0.00907784 0.029114 0.0
0.0108193 0.0297113 0.0
0.00743234 0.0304882 0.0
0.00557426 0.0315455 0.0
0.00382097 0.0330247 0.0
0.0197719 0.0229755 0.0
0.0203166 0.0243406 0.0
0 0.034 0.0
0.0461338 0.00190849 0.0
0.048 0 0.0
0.0269024 0.0170473 0.0
0.0254763 0.0182329 0.0
0.0283286 0.0158617 0.0
0.0301809 0.0125656 0.0
0.0295622 0.0143087 0.0
0.0331801 0.0111007 0.0
0.0321051 0.0127619 0.0
0.0389548 0.00568374 0.0
0.037748 0.00757783 0.0
0.0367608 0.00941077 0.0
0.034825 0.0112114 0.0
0.040925 0.00589564 0.0
0.0443139 0.00386508 0.0
0.0462675 0.00381698 0.0
0.0428482 0.005798 0.0
0.0173369 0.0276402 0.0
0.0186037 0.0269376 0.0
0.0160701 0.0283428 0.0
0.022148 0.0217909 0.0
0.0237457 0.0210352 0.0
0.025308 0.0201909 0.0
0.019923 0.0265677 0.0
0.00191061 0.0343999 0.0
0.00382122 0.0347997 0.0
0.0147183 0.0291812 0.0
0.0125608 0.0303087 0.0
0.00926559 0.0311019 0.0
0.0110466 0.0316981 0.0
0.00743234 0.0320606 0.0
0.00573145 0.033537 0.0
0.0218789 0.0234962 0.0
0.0213878 0.0254724 0.0
0 0.036 0.0
0.0481192 0.00201156 0.0
0.0500973 0.0020044 0.0
0.05 0 0.0
0.0284076 0.0174197 0.0
0.0270277 0.0194525 0.0
0.0302395 0.016051 0.0
0.0311186 0.0144212 0.0
0.0326751 0.0145337 0.0
0.0340569 0.0130219 0.0
0.0392731 0.00757832 0.0
0.0381707 0.00941018 0.0
0.036771 0.0114991 0.0
0.03583 0.0126746 0.0
0.041233 0.00785889 0.0
0.0482384 0.00402311 0.0
0.0447786 0.00572585 0.0
0.0464013 0.00572547 0.0
0.0431307 0.00772873 0.0
0.0184532 0.0286903 0.0
0.0165104 0.029812 0.0
0.0201185 0.0286981 0.0
0.0234411 0.0226519 0.0
0.0250034 0.0218076 0.0
0.0265657 0.0209632 0.0
0.0216124 0.027669 0.0
0.00561647 0.0354577 0.0
0.00187228 0.0363734 0.0
0.00374456 0.0367468 0.0
0.0143023 0.0309061 0.0
0.0131695 0.0317796 0.0
0.0160438 0.0315035 0.0
0.00926559 0.0325689 0.0
0.0110466 0.0330627 0.0
0.00782403 0.0337192 0.0
0.022459 0.0266042 0.0
0.0230065 0.0248792 0.0
0 0.038 0.0
0.0499712 0.00402285 0.0
0.0519637 0.00200453 0.0
0.052 0 0.0
0.0299128 0.0177921 0.0
0.028579 0.020672 0.0
0.0296902 0.0192745 0.0
0.0319199 0.0177921 0.0
0.0321882 0.0163066 0.0
0.0338744 0.0158292 0.0
0.0351184 0.015133 0.0
0.0363625 0.0144369 0.0
0.0385896 0.011226 0.0
0.0395809 0.00941077 0.0
0.0372192 0.0133591 0.0
0.0390085 0.0130419 0.0
0.0415285 0.00974254 0.0
0.0483576 0.00603467 0.0
0.0450378 0.00763256 0.0
0.0469515 0.00757056 0.0
0.0434017 0.00958119 0.0
0.0447782 0.00958059 0.0
0.0183026 0.0304429 0.0
0.0175645 0.031636 0.0
0.0208006 0.0304547 0.0
0.0222603 0.0293332 0.0
0.0251244 0.0233361 0.0
0.0274678 0.0220696 0.0
0.0263141 0.0227327 0.0
0.0235302 0.027736 0.0
0.00861175 0.0350413 0.0
0.00748863 0.0359436 0.0
0.00561684 0.0371203 0.0
0.00197617 0.0382754 0.0
0.00388716 0.0387387 0.0
0.014998 0.0323044 0.0
0.0128275 0.0335565 0.0
0.0168264 0.0328292 0.0
0.0116097 0.034551 0.0
0.00973488 0.034139 0.0
0.0241342 0.0262622 0.0
0.0252454 0.0248646 0.0
0 0.04 0.0
0.0510539 0.00502388 0.0
0.0499568 0.00603428 0.0
0.0521511 0.00401349 0.0
0.054 0 0.0
0.0539419 0.00200687 0.0
0.0310859 0.0193774 0.0
0.0289895 0.0222985 0.0
0.0303544 0.0209391 0.0
0.0324816 0.0194804 0.0
0.033491 0.0184984 0.0
0.0345005 0.0175163 0.0
0.036895 0.0161991 0.0
0.0381612 0.0155284 0.0
0.0405679 0.0116255 0.0
0.0407735 0.0141838 0.0
0.0394273 0.0148577 0.0
0.0424166 0.0114337 0.0
0.0484756 0.00802469 0.0
0.0471796 0.0093851 0.0
0.0449286 0.0114329 0.0
0.0467913 0.0112907 0.0
0.0194717 0.0317704 0.0
0.0209604 0.0318498 0.0
0.018629 0.0333465 0.0
[...]
POINT_DATA 3366
VECTORS u float
0 0 0.0
0.00127339 0 0.0
0 0.00870592 0.0
0.00121807 0 0.0
0.00113041 0 0.0
0 0.00875361 0.0
0.00122971 0.00878398 0.0
0.00105002 0.00875192 0.0
0.00115681 0.00893979 0.0
0 0.00880832 0.0
0.000992672 0 0.0
0.00105846 0.00921429 0.0
0.000782852 0.00878047 0.0
0.000878535 0.0089045 0.0
0.0010166 0.00902933 0.0
0.000143344 0.00885477 0.0
0 0.00890128 0.0
0.000817475 0 0.0
0.000898338 0.00957415 0.0
0.00086117 0.009362 0.0
8.09594e-05 0.00891753 0.0
0.000460286 0.0089608 0.0
0.000762764 0.0091054 0.0
0.00043876 0.00893339 0.0
0.000675409 0.00901681 0.0
0 0.00900444 0.0
0.000590776 0 0.0
0.000736662 0.0100416 0.0
0.000740593 0.00965444 0.0
0.000537159 0.00947107 0.0
9.65477e-05 0.00905335 0.0
0.000236379 0.00928694 0.0
0.00141767 0.00904726 0.0
0.00107688 0.00914709 0.0
0.00181992 0.0091451 0.0
0 0.00914211 0.0
0.000290115 0 0.0
0.000478827 0.0107087 0.0
0.00054215 0.0102474 0.0
0.000489553 0.00986485 0.0
0.000160845 0.00963142 0.0
7.10407e-05 0 0.0
0.000517701 0 0.0
0.000689708 0.0092629 0.0
0.000234852 0.00941662 0.0
0.00269134 0.00920517 0.0
0.00146873 0.0093284 0.0
0.00178822 0.00952257 0.0
0.00211373 0.00928477 0.0
0.00303919 0.00929955 0.0
0 0.0093205 0.0
0.000161097 0.0114642 0.0
0.00027882 0.010904 0.0
0.000266758 0.0104037 0.0
0.000107943 0.00999043 0.0
0.000316896 0.00981004 0.0
0.000281365 0.010267 0.0
0.00103243 0 0.0
0.000643969 0.0134352 0.0
0.000218965 0.0124202 0.0
0.00017652 0.01209 0.0
0.000965532 0.009977 0.0
0.00114863 0.0096726 0.0
0.00411218 0.0093853 0.0
0.0020205 0.00980851 0.0
0.00260224 0.0094446 0.0
0.00287437 0.00966454 0.0
0.00353862 0.00943842 0.0
0.00460189 0.0094947 0.0
0 0.00953227 0.0
9.69179e-06 0.0111675 0.0
0.000243225 0.0117469 0.0
5.86989e-05 0.0106754 0.0
0.000516285 0.0108297 0.0
0.000841021 0.0103798 0.0
0.00160993 0 0.0
0.00122344 0.014564 0.0
0.000840269 0.0137699 0.0
0.000599902 0.0128969 0.0
0.00167167 0.0101126 0.0
0.00571445 0.00960085 0.0
0.00261082 0.0100596 0.0
0.00347074 0.00988787 0.0
0.00385845 0.00960807 0.0
0.00447472 0.00980588 0.0
0.00498066 0.00962536 0.0
0.00629158 0.00971014 0.0
0 0.00978246 0.0
0.000647177 0.0122784 0.0
0.00132962 0.010686 0.0
0.00209348 0.0109043 0.0
0.000584726 0.0114433 0.0
0.000933731 0.0111218 0.0
0.00226985 0 0.0
0.00184353 0.0160781 0.0
0.00134452 0.0147359 0.0
0.000983116 0.0133079 0.0
0.00113672 0.013987 0.0
0.0027711 0.010542 0.0
0.00758758 0.0098848 0.0
0.00386116 0.0102793 0.0
0.00488793 0.0101217 0.0
0.00561474 0.00980128 0.0
0.00618775 0.0100485 0.0
0.00693078 0.00985785 0.0
0.00808638 0.00999704 0.0
0 0.0100666 0.0
0.00295564 0.0111524 0.0
0.00117781 0.0125109 0.0
0.00171233 0.0113425 0.0
0.0024229 0.0116167 0.0
0.00125971 0.0118452 0.0
0.00301203 0 0.0
0.00252373 0.0175133 0.0
0.00216218 0.0164838 0.0
0.00178962 0.0154627 0.0
0.0014373 0.0136347 0.0
0.00163356 0.0145805 0.0
0.00383978 0 0.0
0.00392911 0.0106986 0.0
0.00974922 0.0101694 0.0
0.00518924 0.0104119 0.0
0.0063053 0.0102878 0.0
0.00750866 0.0100716 0.0
0.00814878 0.0103218 0.0
0.00859623 0.0101293 0.0
0.0104797 0.0103261 0.0
0 0.010402 0.0
0.00381755 0.0114257 0.0
0.00314581 0.0118868 0.0
0.00179881 0.0127625 0.0
0.00192893 0.0120481 0.0
0.0032935 0.0191011 0.0
0.00284293 0.0180427 0.0
0.00252859 0.0169838 0.0
0.00230581 0.0161641 0.0
0.00216656 0.0153708 0.0
0.00191165 0.0139067 0.0
0.00473982 0 0.0
0.00409377 0.0206816 0.0
0.00571042 0 0.0
0.00465447 0.0110672 0.0
0.00561127 0.0107916 0.0
0.0120295 0.010536 0.0
0.00670524 0.0106106 0.0
0.00791245 0.01051 0.0
0.00959434 0.0106252 0.0
0.00965159 0.0103725 0.0
0.0111715 0.0105106 0.0
0.0127812 0.0106995 0.0
0.0049904 0.0117722 0.0
0 0.0107729 0.0
0.00229104 0.0137387 0.0
0.00407777 0.0122202 0.0
0.0033759 0.0127508 0.0
0.00256445 0.0130164 0.0
0.00353833 0.0194932 0.0
0.00321292 0.0185379 0.0
0.00294216 0.0174795 0.0
0.00283318 0.0164754 0.0
0.00240743 0.0146297 0.0
0.00501137 0.0223703 0.0
0.0043842 0.0211432 0.0
0.00674552 0 0.0
0.00598074 0.0240585 0.0
0.00607733 0.0114254 0.0
0.00732526 0.0111737 0.0
0.0142798 0.0109188 0.0
0.00869414 0.0110212 0.0
0.0100792 0.0109294 0.0
0.0110002 0.0106545 0.0
0.0116271 0.0110093 0.0
0.0123031 0.0107662 0.0
0.0135464 0.010898 0.0
0.0149447 0.0110676 0.0
0.00612294 0.0119974 0.0
0.00522987 0.0123896 0.0
0 0.0111837 0.0
0.00309875 0.0149329 0.0
0.00304981 0.0140323 0.0
0.00444593 0.0130591 0.0
0.00359968 0.0137626 0.0
0.00397511 0.0201576 0.0
0.00362082 0.0190346 0.0
0.00341462 0.0179391 0.0
0.00336255 0.0170359 0.0
0.00328784 0.016023 0.0
0.00530451 0.0228363 0.0
0.00467578 0.0216113 0.0
0.00783659 0 0.0
0.00702902 0.0257965 0.0
0.00626173 0.0245163 0.0
0.00733852 0.0116526 0.0
0.00871664 0.0114102 0.0
0.0165494 0.0113165 0.0
0.010602 0.0112873 0.0
0.0121617 0.0113047 0.0
0.0125928 0.0109681 0.0
0.0135723 0.0112469 0.0
0.014296 0.0111006 0.0
0.0156515 0.0112498 0.0
0.0172533 0.0114737 0.0
0.00734362 0.0122243 0.0
0.00548332 0.0130809 0.0
0.00636006 0.0126259 0.0
0 0.0116326 0.0
0.00386028 0.0148854 0.0
0.00440855 0.0140195 0.0
0.00438861 0.0206261 0.0
0.00399666 0.0163518 0.0
0.0040522 0.0195165 0.0
0.00389779 0.0183715 0.0
0.00384836 0.0173571 0.0
0.00560354 0.0232911 0.0
0.00512214 0.0223117 0.0
0.00895506 0 0.0
0.00806004 0.0272995 0.0
0.00731119 0.0262071 0.0
0.00652863 0.0249344 0.0
0.0100929 0 0.0
0.0112313 0 0.0
0.0086972 0.0118815 0.0
0.0102141 0.011826 0.0
0.00573787 0.013869 0.0
0.0190214 0.011776 0.0
0.0126117 0.0115579 0.0
0.0141626 0.0115362 0.0
0.0149801 0.0113483 0.0
0.0156597 0.0115959 0.0
0.0163262 0.0114386 0.0
0.0179093 0.0116426 0.0
0.0196765 0.0119339 0.0
0.00868368 0.0124577 0.0
0.00703723 0.0130643 0.0
0 0.0121239 0.0
0.00478362 0.0158018 0.0
0.0048469 0.0148603 0.0
0.00499753 0.016808 0.0
0.00459752 0.0207206 0.0
0.00460712 0.0175936 0.0
0.00449251 0.0199303 0.0
0.00442466 0.0187758 0.0
0.00591172 0.0237289 0.0
0.00550193 0.0227449 0.0
0.00918373 0.0288046 0.0
0.00827111 0.0276419 0.0
0.00742535 0.0264178 0.0
0.00682074 0.0253099 0.0
0.010253 0.0301167 0.0
0.0123647 0 0.0
0.0113842 0.0313823 0.0
0.0108942 0.0122712 0.0
0.0122712 0.0118916 0.0
0.0139673 0.0121095 0.0
0.00705744 0.0139162 0.0
0.00601293 0.0147981 0.0
0.0211647 0.0122456 0.0
0.0147342 0.0118527 0.0
0.0163021 0.0118638 0.0
0.0173628 0.0117112 0.0
0.0179861 0.0119541 0.0
0.0185444 0.0118196 0.0
0.020322 0.0121001 0.0
0.0217223 0.0123794 0.0
0.010072 0.0129335 0.0
0.00863147 0.0131333 0.0
0.0115859 0.0127783 0.0
0 0.0126426 0.0
0.0134618 0 0.0
0.00572927 0.0167505 0.0
0.00578927 0.0157283 0.0
0.00525284 0.0179242 0.0
0.00496194 0.0211295 0.0
0.00505623 0.0191534 0.0
0.00488591 0.020097 0.0
0.00620795 0.0241376 0.0
0.00571614 0.0227688 0.0
0.00939487 0.0290899 0.0
0.00847542 0.0279652 0.0
0.00781995 0.0270441 0.0
0.00689693 0.0253622 0.0
0.0103922 0.0303538 0.0
0.0124437 0.0323186 0.0
0.0115054 0.0315303 0.0
0.0132404 0.0124318 0.0
0.0156739 0.0123209 0.0
0.00859407 0.013963 0.0
0.0073783 0.0147464 0.0
0.00722986 0.0158879 0.0
0.013165 0.0130119 0.0
0.0233716 0.0127483 0.0
0.0168958 0.0121738 0.0
0.018036 0.012167 0.0
0.0191527 0.012007 0.0
0.0197289 0.0122099 0.0
0.0209298 0.0122652 0.0
0.0222657 0.0125158 0.0
0.0239746 0.0129017 0.0
0.0106556 0.0133751 0.0
0.011976 0.0135694 0.0
0 0.0131872 0.0
0.0135286 0.0331533 0.0
0.0145183 0 0.0
0.00597583 0.0182165 0.0
0.00647478 0.0169996 0.0
0.00570868 0.0195182 0.0
0.00540264 0.0214792 0.0
0.00554299 0.0207573 0.0
0.00638338 0.0242313 0.0
0.00611094 0.023109 0.0
0.00939735 0.0291506 0.0
0.00863671 0.0282552 0.0
0.00809056 0.0273609 0.0
0.00712455 0.0256861 0.0
0.010509 0.0305363 0.0
0.012494 0.032422 0.0
0.0135758 0.033234 0.0
0.0116061 0.0316856 0.0
0.016241 0.0127487 0.0
0.015201 0.0130079 0.0
0.0173305 0.0125413 0.0
0.0092059 0.0145435 0.0
0.00841862 0.0155351 0.0
0.00771849 0.0166457 0.0
0.0145052 0.0134158 0.0
0.0254781 0.0132931 0.0
0.025896 0.01339 0.0
0.0185844 0.0124554 0.0
0.020256 0.0124337 0.0
0.0214973 0.0124458 0.0
0.0220051 0.0126394 0.0
0.0227888 0.0126409 0.0
0.0244428 0.0130399 0.0
0.0108387 0.0142949 0.0
0.0130019 0.0139764 0.0
0 0.013755 0.0
0.0145753 0.0338613 0.0
0.0155767 0.0342835 0.0
0.0155249 0 0.0
0.00631176 0.0194164 0.0
0.00722831 0.0180058 0.0
0.00615025 0.0211324 0.0
0.00598764 0.0221069 0.0
0.00652369 0.0234739 0.0
0.0068927 0.0248601 0.0
0.00949003 0.0293926 0.0
0.00881218 0.0285353 0.0
0.00810234 0.0272641 0.0
0.00761728 0.0264519 0.0
0.0105866 0.0307271 0.0
0.0146165 0.0338965 0.0
0.0126893 0.0326478 0.0
0.0135854 0.0333421 0.0
0.0116616 0.0318457 0.0
0.0173258 0.0130803 0.0
0.0191084 0.0127701 0.0
0.0170338 0.013506 0.0
0.00980448 0.0151957 0.0
0.00892099 0.0162565 0.0
0.00821574 0.0174526 0.0
0.0154624 0.0140257 0.0
0.0265147 0.0135563 0.0
0.027417 0.0138562 0.0
0.027755 0.0139517 0.0
0.0207285 0.0126827 0.0
0.0218851 0.0127594 0.0
0.0212149 0.0129676 0.0
0.02324 0.0127823 0.0
0.0236658 0.0129341 0.0
0.0245913 0.0130681 0.0
0.0140734 0.0144177 0.0
0.0120706 0.0147721 0.0
0 0.0143387 0.0
0.015473 0.0342708 0.0
0.0164422 0.0344063 0.0
0.0164649 0 0.0
0.00670393 0.0206155 0.0
0.00799358 0.0190885 0.0
0.00730898 0.0202119 0.0
0.00706025 0.0224211 0.0
0.00672477 0.022844 0.0
0.00716844 0.0244621 0.0
0.00749682 0.0255848 0.0
0.00796527 0.0267942 0.0
0.00902831 0.0287851 0.0
0.00958325 0.0296097 0.0
0.00829657 0.0275878 0.0
0.00922005 0.0290695 0.0
0.0106737 0.0309137 0.0
0.0146175 0.0339554 0.0
0.0127645 0.0327991 0.0
0.0138184 0.033591 0.0
0.0117532 0.0320157 0.0
0.0125148 0.03274 0.0
0.0195644 0.0131743 0.0
0.0211412 0.0131638 0.0
0.0190892 0.0137883 0.0
0.0173821 0.0142697 0.0
0.0102472 0.0161568 0.0
0.00896259 0.017988 0.0
0.00954461 0.0170635 0.0
0.01517 0.0148673 0.0
0.0258952 0.0134099 0.0
0.0269008 0.0136759 0.0
0.0281106 0.0140314 0.0
0.0291673 0.0144124 0.0
0.0295396 0.0145304 0.0
0.022323 0.0129946 0.0
0.0240712 0.0131038 0.0
0.022714 0.0132486 0.0
0.0252882 0.0133142 0.0
0.024926 0.0131734 0.0
0.0133285 0.0152572 0.0
0.0116597 0.0160597 0.0
0 0.0149273 0.0
0.0159637 0.0343764 0.0
0.0154148 0.0342701 0.0
0.0164919 0.034435 0.0
0.0173271 0 0.0
0.0172871 0.0343997 0.0
0.00749272 0.0214519 0.0
0.00904951 0.0191891 0.0
0.00823732 0.0205554 0.0
0.00775729 0.0227123 0.0
0.00761956 0.0237727 0.0
0.00763515 0.0248143 0.0
0.00832233 0.0271628 0.0
0.00883653 0.028277 0.0
0.0100687 0.030279 0.0
0.0100987 0.0303449 0.0
0.00942386 0.0293048 0.0
0.0111021 0.0314751 0.0
0.0145893 0.0340252 0.0
0.0138333 0.0336855 0.0
0.0124778 0.0328346 0.0
0.0134944 0.0335847 0.0
0.0209818 0.0135431 0.0
0.0207827 0.0139114 0.0
0.0230811 0.0135415 0.0
0.0195716 0.0143352 0.0
0.0177547 0.0148383 0.0
0.0212125 0.0144282 0.0
0.0101913 0.0178626 0.0
0.0143172 0.0163307 0.0
0.0159939 0.015495 0.0
0.0273626 0.0137905 0.0
0.0284674 0.0141109 0.0
0.0298193 0.0146114 0.0
0.0306902 0.0149979 0.0
0.0309126 0.0150511 0.0
0.0244049 0.013295 0.0
0.0255732 0.0134245 0.0
0.0247717 0.0135013 0.0
0.0251232 0.0137552 0.0
0.0271843 0.0137462 0.0
0.0125221 0.0168405 0.0
0.0104292 0.0196425 0.0
0 0.0155148 0.0
0.0164664 0.0344598 0.0
0.0159114 0.0343939 0.0
0.0153237 0.0343079 0.0
0.0172276 0.0343848 0.0
0.017153 0.034423 0.0
0.018094 0 0.0
0.0180519 0.0340814 0.0
0.0178968 0.034169 0.0
0.0187705 0 0.0
0.0193525 0 0.0
0.0198462 0 0.0
0.0202569 0 0.0
0.0205873 0 0.0
0.0208484 0 0.0
0.00848962 0.0222161 0.0
0.00924885 0.0208936 0.0
0.00835974 0.0237072 0.0
0.00822454 0.0252013 0.0
0.00852111 0.0267008 0.0
0.00889025 0.0281449 0.0
0.00962582 0.0295384 0.0
0.0108124 0.0312564 0.0
0.0103751 0.0307406 0.0
0.0103607 0.0305999 0.0
0.011621 0.0321511 0.0
0.0124568 0.0329402 0.0
0.0145279 0.0341046 0.0
0.0152102 0.0343627 0.0
0.0134502 0.0336656 0.0
0.0142726 0.0341236 0.0
0.0224909 0.0140301 0.0
0.0244571 0.0139194 0.0
0.0200646 0.0149834 0.0
0.0184781 0.0156706 0.0
0.0229006 0.0145357 0.0
0.0112571 0.0180806 0.0
0.0157189 0.0163755 0.0
0.014583 0.0174789 0.0
0.0173983 0.0163553 0.0
0.0287204 0.0141718 0.0
0.0297963 0.0145629 0.0
0.0311091 0.0150887 0.0
0.0320269 0.0155801 0.0
0.032172 0.0156266 0.0
0.0265802 0.0137243 0.0
0.0274841 0.0138536 0.0
0.0269236 0.013907 0.0
0.0263167 0.0140391 0.0
0.0289414 0.0142426 0.0
0.0125736 0.0184448 0.0
0.0115588 0.0198704 0.0
0.010408 0.0212114 0.0
0 0.016095 0.0
0.0210434 0 0.0
0.0211795 0 0.0
0.0164265 0.0345121 0.0
0.0161078 0.0345428 0.0
0.0170465 0.0344501 0.0
0.0179207 0.0341601 0.0
0.0178161 0.0341868 0.0
0.0186902 0.0336574 0.0
0.0185964 0.0337065 0.0
0.0185695 0.0336704 0.0
0.0192766 0.0329632 0.0
0.0197768 0.0321679 0.0
0.0201738 0.0312567 0.0
0.0205196 0.0301525 0.0
0.0207764 0.0290847 0.0
0.0209823 0.0278771 0.0
0.00941366 0.022552 0.0
0.00900594 0.0247301 0.0
0.00905596 0.0269392 0.0
0.00924286 0.0280593 0.0
0.00954796 0.0290741 0.0
0.0103077 0.0304474 0.0
0.0113309 0.0319346 0.0
0.0110375 0.0316051 0.0
0.0121097 0.0327291 0.0
0.0128484 0.0333744 0.0
0.0138303 0.034038 0.0
0.0150648 0.0344314 0.0
0.0159637 0.0346053 0.0
0.014395 0.034273 0.0
0.0248754 0.0143174 0.0
0.0265124 0.014348 0.0
0.0191213 0.0163499 0.0
0.0211959 0.0154354 0.0
0.0252455 0.0148037 0.0
0.0232752 0.0151599 0.0
0.0140763 0.0188234 0.0
0.0162255 0.0178043 0.0
0.0300074 0.0145827 0.0
0.0312722 0.0151138 0.0
0.0323097 0.0156558 0.0
0.0330975 0.0161527 0.0
0.0332067 0.0161914 0.0
0.0291868 0.0143297 0.0
0.0284382 0.0141199 0.0
0.0287518 0.0142833 0.0
0.0281967 0.0143008 0.0
0.0279761 0.0144629 0.0
0.0306373 0.0147706 0.0
0.0128018 0.0201241 0.0
0.0117439 0.0215573 0.0
0.0105796 0.0229358 0.0
0 0.0166595 0.0
0.021266 0 0.0
0.0213131 0 0.0
0.0213244 0 0.0
0.0213063 0 0.0
0.0211331 0.0265955 0.0
0.0212289 0.0253848 0.0
0.0169245 0.0344896 0.0
0.0167302 0.034569 0.0
0.0174569 0.0343405 0.0
0.0184682 0.0337131 0.0
0.0183489 0.0337755 0.0
0.0191824 0.0330648 0.0
0.0190629 0.033156 0.0
0.0189216 0.033229 0.0
0.0196351 0.0323553 0.0
0.0200585 0.0314229 0.0
0.020417 0.0303471 0.0
0.0206921 0.029254 0.0
0.0208842 0.0281663 0.0
0.021046 0.0268938 0.0
0.00988078 0.0250033 0.0
0.00970797 0.0271299 0.0
0.0097594 0.0285818 0.0
0.0105885 0.0306052 0.0
0.0112289 0.031764 0.0
0.0120565 0.0328289 0.0
0.0119382 0.0326964 0.0
0.0133536 0.0338826 0.0
0.0143109 0.0343702 0.0
0.016149 0.0346834 0.0
0.0153058 0.0346017 0.0
0.0149978 0.0346224 0.0
0.0267107 0.0147094 0.0
0.0179872 0.0181596 0.0
0.0198013 0.0171893 0.0
0.0216099 0.0163144 0.0
0.0236723 0.015849 0.0
0.0262695 0.0154057 0.0
0.0151995 0.0193221 0.0
0.0317566 0.0152654 0.0
0.0324582 0.0156764 0.0
0.0285662 0.0148273 0.0
0.0333234 0.0162138 0.0
0.0339002 0.0167117 0.0
0.0339649 0.0167428 0.0
0.0303412 0.0146735 0.0
0.029966 0.0145716 0.0
0.029869 0.0146308 0.0
0.0292988 0.0146388 0.0
0.0317383 0.015161 0.0
0.0164678 0.0198826 0.0
0.0319812 0.0153125 0.0
0.0147607 0.020877 0.0
0.0132856 0.0219012 0.0
0.0119275 0.0227627 0.0
0.0113724 0.0240487 0.0
0 0.0171997 0.0
0.01102 0.025317 0.0
0.0212649 0 0.0
0.0212043 0 0.0
0.0211247 0 0.0
0.0212855 0.0242475 0.0
0.0213042 0.0230764 0.0
0.021296 0.0219353 0.0
0.0212652 0.0207739 0.0
0.0211465 0.0257027 0.0
0.0212125 0.0245608 0.0
0.0172661 0.0344163 0.0
0.0170475 0.0344983 0.0
0.0180078 0.0339856 0.0
0.0187719 0.0333104 0.0
0.0185706 0.0333963 0.0
0.0194891 0.0324816 0.0
0.0194203 0.0324506 0.0
0.0191437 0.0327584 0.0
0.0199188 0.0315963 0.0
0.0202931 0.0305368 0.0
0.0205365 0.0296141 0.0
0.0207461 0.0284203 0.0
0.0209225 0.027175 0.0
0.0210179 0.0261221 0.0
0.0105641 0.0273427 0.0
0.0104159 0.0288052 0.0
0.0108028 0.0302346 0.0
0.0111974 0.0314665 0.0
0.0119264 0.0325768 0.0
0.0125222 0.0332968 0.0
0.0129278 0.0336504 0.0
0.0138181 0.0342759 0.0
0.0146259 0.0346294 0.0
0.0164299 0.0346949 0.0
0.015647 0.0347375 0.0
0.0152671 0.0347893 0.0
0.0281115 0.0151582 0.0
0.0182007 0.019293 0.0
0.0201593 0.0180989 0.0
0.0235118 0.0167693 0.0
0.0220315 0.0173525 0.0
0.0251842 0.0168757 0.0
0.0265345 0.0161181 0.0
0.0283372 0.0157395 0.0
0.0326027 0.0156694 0.0
0.0334192 0.0162234 0.0
0.0298482 0.0152389 0.0
0.0308512 0.0150588 0.0
0.0184622 0.0204872 0.0
0.0339423 0.0166728 0.0
0.0344325 0.0172158 0.0
0.0344606 0.0172109 0.0
0.0310755 0.014901 0.0
0.0321198 0.0152826 0.0
0.0310076 0.0149042 0.0
0.0307475 0.01489 0.0
0.032873 0.0156611 0.0
0.0166402 0.0213914 0.0
0.0334306 0.016037 0.0
0.0149679 0.0223254 0.0
0.0134657 0.0241549 0.0
0.0123038 0.0251534 0.0
0 0.0177106 0.0
0.0118159 0.026727 0.0
0.0209249 0 0.0
0.0210318 0 0.0
0.0212106 0.0197192 0.0
0.021132 0.0185843 0.0
0.0210443 0.0175325 0.0
0.0212313 0.0233955 0.0
0.0212374 0.0223326 0.0
0.0211827 0.0199901 0.0
0.021225 0.0211304 0.0
0.0210945 0.024865 0.0
0.0211143 0.023729 0.0
0.0172255 0.0343994 0.0
0.0178104 0.0340673 0.0
0.0183922 0.0334785 0.0
0.0189916 0.0327583 0.0
0.0197578 0.031758 0.0
0.0195654 0.0318887 0.0
0.0193536 0.0320215 0.0
0.0201407 0.0307127 0.0
0.0203686 0.029826 0.0
0.0205755 0.0286658 0.0
0.0207641 0.0274382 0.0
0.0208521 0.0264021 0.0
0.0209417 0.0251794 0.0
0.0114368 0.0286596 0.0
0.0114581 0.0304602 0.0
0.0117044 0.0316671 0.0
0.0128169 0.0335285 0.0
0.0122364 0.0327688 0.0
0.0170153 0.0344616 0.0
0.0133296 0.0340534 0.0
0.0134057 0.034107 0.0
0.0144742 0.0347011 0.0
0.0163479 0.0347099 0.0
0.0158759 0.0347911 0.0
0.0152658 0.0348689 0.0
0.0300979 0.0156425 0.0
0.020359 0.0200487 0.0
0.022166 0.0188506 0.0
0.0240371 0.0178345 0.0
0.0256155 0.0179911 0.0
0.0268055 0.0170172 0.0
0.0285804 0.0164373 0.0
0.0306048 0.0162572 0.0
0.0329938 0.0156769 0.0
0.0335565 0.0162199 0.0
0.0341419 0.0167545 0.0
0.0311431 0.0153486 0.0
0.0319276 0.0152921 0.0
0.0186909 0.0218793 0.0
0.034481 0.0171882 0.0
0.0346981 0.0176934 0.0
0.034699 0.0176547 0.0
0.0320008 0.0152112 0.0
0.0331162 0.015665 0.0
0.0321153 0.0152651 0.0
0.0337162 0.0160514 0.0
0.0337874 0.0161735 0.0
0.0318954 0.0156761 0.0
0.0168812 0.0228176 0.0
0.0341423 0.0165523 0.0
0.0139274 0.025604 0.0
0.0152763 0.0245235 0.0
0.0132237 0.027149 0.0
0 0.0181898 0.0
0.0347507 0.0181621 0.0
0.0125673 0.028961 0.0
0.020511 0 0.0
0.0206667 0 0.0
0.0208051 0 0.0
0.020821 0.0151504 0.0
0.0209342 0.0163925 0.0
0.0211178 0.0189314 0.0
0.0210555 0.019171 0.0
0.0210192 0.0177839 0.0
0.0209367 0.0169091 0.0
0.0211347 0.0226998 0.0
0.0211609 0.0216891 0.0
0.0211043 0.0203501 0.0
0.0210635 0.0210645 0.0
0.020985 0.0230253 0.0
0.0209681 0.024193 0.0
0.0178454 0.0339297 0.0
0.0184189 0.0331382 0.0
0.018847 0.0327137 0.0
0.019204 0.0318014 0.0
0.019963 0.0308618 0.0
0.0194945 0.0314026 0.0
0.0197557 0.0309875 0.0
0.02017 0.0300189 0.0
0.0203718 0.0288739 0.0
0.0207428 0.0242869 0.0
0.0205646 0.0276592 0.0
0.0206414 0.0264187 0.0
0.0207472 0.0254412 0.0
0.0175873 0.0339698 0.0
0.012351 0.0306505 0.0
0.0123274 0.0318738 0.0
0.0134217 0.0339716 0.0
0.0130383 0.0334291 0.0
0.016782 0.0345057 0.0
0.0143595 0.0347221 0.0
0.013984 0.0345289 0.0
0.0150681 0.0349099 0.0
0.0162544 0.0347419 0.0
0.0156339 0.0348541 0.0
0.0319403 0.0160688 0.0
0.0209571 0.0217921 0.0
0.022881 0.0202834 0.0
0.0246474 0.0191426 0.0
0.0262158 0.0192918 0.0
0.0271032 0.0181627 0.0
0.0287492 0.0174147 0.0
0.0320812 0.0165681 0.0
0.030398 0.0169604 0.0
0.0340632 0.0166137 0.0
0.0130216 0.0300782 0.0
0.0326566 0.0159288 0.0
0.0345337 0.0171496 0.0
0.0345623 0.0170972 0.0
0.0322292 0.0155243 0.0
0.0328577 0.0155515 0.0
0.019035 0.0233952 0.0
0.0347421 0.017676 0.0
0.034726 0.018119 0.0
0.033787 0.0160148 0.0
0.0332126 0.0156711 0.0
0.0343068 0.0165689 0.0
0.0342657 0.0164221 0.0
0.0333001 0.0159258 0.0
0.0173128 0.0244145 0.0
0.0213617 0.0241114 0.0
0.0346137 0.0170239 0.0
0.015847 0.0264164 0.0
0.0147413 0.0281229 0.0
0 0.0186234 0.0
0.0344764 0.0185936 0.0
0.0345166 0.018498 0.0
0.01391 0.0295052 0.0
0.0201287 0 0.0
0.0203422 0 0.0
0.0204153 0.0109558 0.0
0.0205362 0.0122707 0.0
0.0206697 0.0139711 0.0
0.0209017 0.0193944 0.0
0.0207708 0.0156516 0.0
0.0209877 0.0181736 0.0
0.0208852 0.018372 0.0
0.0208771 0.0171697 0.0
0.0210001 0.0218212 0.0
0.0209075 0.020282 0.0
0.0208521 0.0223012 0.0
0.0207986 0.023348 0.0
0.0181087 0.033257 0.0
0.0184969 0.0324047 0.0
0.0188065 0.0322815 0.0
0.0192361 0.031228 0.0
0.0200006 0.0298711 0.0
0.0197015 0.0304051 0.0
0.0201989 0.0288821 0.0
0.0203447 0.0278384 0.0
0.0205754 0.023622 0.0
0.0205036 0.024545 0.0
0.0203971 0.0266653 0.0